192  
6    

1    
  0.0069897595184229   0.0000000000000000   0.0071514517319644
  -0.0516752100   -0.0000002300   -0.0794122100
   0.0067404700    0.0000002300   -0.0329950200
   0.0005589100    0.0000002800   -0.0332008900
   0.0098576700   -0.0000002000   -0.0360801000
  -0.0045027400   -0.0016071000   -0.0345402100
   0.0007731500    0.0005973200   -0.0321418000
   0.0003150700   -0.0001770200   -0.0331449300
   0.0028373800   -0.0026626300   -0.0341554200
  -0.0004185500   -0.0000000700   -0.0332015100
  -0.0001593700    0.0000001700   -0.0329739400
   0.0003310000   -0.0000000800   -0.0332319700
   0.0001932700   -0.0000001600   -0.0333164200
  -0.0045027800    0.0016075200   -0.0345406800
   0.0007735600   -0.0005968100   -0.0321416600
   0.0003149900    0.0001774300   -0.0331450200
   0.0028377000    0.0026623500   -0.0341565300
  -0.0000634400   -0.0000000000   -0.0328282700
  -0.0000784800   -0.0000003300   -0.0330200800
   0.0001118200    0.0000002500   -0.0332081000
   0.0000593200   -0.0000001700   -0.0331526500
  -0.0000872300   -0.0000689600   -0.0330860600
  -0.0000217800   -0.0000021800   -0.0331605100
   0.0000951800   -0.0000218100   -0.0332207200
   0.0000311700   -0.0000509600   -0.0332103100
  -0.0000819400    0.0000001000   -0.0332083600
   0.0000027600   -0.0000001000   -0.0332022100
   0.0000462100    0.0000000900   -0.0332249400
   0.0000462400   -0.0000003600   -0.0332412600
  -0.0000871100    0.0000689100   -0.0330861000
  -0.0000220700    0.0000018600   -0.0331610100
   0.0000951100    0.0000216300   -0.0332211300
   0.0000312500    0.0000508500   -0.0332108100
  -0.0029685400    0.0025978700    0.0326038900
   0.0001755300    0.0000928500    0.0332614000
   0.0007403000    0.0003145100    0.0338106800
   0.0017912900    0.0021613900    0.0372463600
  -0.0029685000   -0.0025978600    0.0326046600
   0.0001758000   -0.0000931200    0.0332611000
   0.0007405400   -0.0003147100    0.0338105200
   0.0017907800   -0.0021615000    0.0372464900
  -0.0004104500   -0.0001712300    0.0333372800
   0.0001160400    0.0000505800    0.0332946700
   0.0003288700   -0.0002636500    0.0335010200
  -0.0000040800   -0.0003929500    0.0337348700
  -0.0004102600    0.0001717600    0.0333369900
   0.0001166000   -0.0000505500    0.0332946900
   0.0003285200    0.0002636000    0.0335008200
  -0.0000034900    0.0003933000    0.0337353200
   0.0003324600   -0.0007856100    0.0338690900
   0.0002326800   -0.0001294700    0.0328978500
   0.0001345600    0.0000691300    0.0327990800
  -0.0005501900   -0.0000938100    0.0330017400
   0.0003318600    0.0007854300    0.0338682200
   0.0002323200    0.0001291700    0.0328974500
   0.0001349200   -0.0000684000    0.0327982000
  -0.0005506000    0.0000936500    0.0330020200
  -0.0000415200    0.0001483400    0.0328794600
   0.0001305900    0.0000132200    0.0328656600
   0.0000258300    0.0000927000    0.0327589400
  -0.0001028100   -0.0000497700    0.0328171700
  -0.0000421100   -0.0001480100    0.0328799500
   0.0001306900   -0.0000127400    0.0328662200
   0.0000252600   -0.0000927000    0.0327605700
  -0.0001025900    0.0000497100    0.0328176700
   0.0027088100    0.0000000100    0.0099321400
   0.0002336800    0.0000000100   -0.0012425600
  -0.0003000000   -0.0000000400   -0.0015955000
  -0.0011862200   -0.0000000100   -0.0021521800
   0.0009174300    0.0007078000   -0.0016955300
  -0.0000087700   -0.0000634600   -0.0012846800
  -0.0002477700    0.0000990700   -0.0015733400
  -0.0006334300    0.0006879300   -0.0019049400
   0.0001487800    0.0000000100   -0.0015953300
   0.0001160800   -0.0000000300   -0.0015470200
  -0.0001934500   -0.0000000100   -0.0015853900
  -0.0000818000   -0.0000000200   -0.0015993500
   0.0009174800   -0.0007078300   -0.0016955300
  -0.0000088500    0.0000634400   -0.0012846600
  -0.0002477600   -0.0000990600   -0.0015733700
  -0.0006334600   -0.0006878900   -0.0019049200
   0.0005664200   -0.0000000200   -0.0017915000
  -0.0003168600   -0.0000000000   -0.0018185200
  -0.0001734800   -0.0000000200   -0.0014454100
   0.0000704300   -0.0000000400   -0.0013682400
   0.0002458400   -0.0001938700   -0.0015933900
  -0.0001330500   -0.0001352800   -0.0014773000
  -0.0001195400   -0.0000307800   -0.0014354900
  -0.0000102100    0.0000127300   -0.0013564500
   0.0001022700    0.0000000100   -0.0014453100
  -0.0000350100    0.0000000000   -0.0014616300
  -0.0000996400    0.0000000300   -0.0014122300
   0.0000269500   -0.0000000500   -0.0014092800
   0.0002458800    0.0001938600   -0.0015933000
  -0.0001330700    0.0001352600   -0.0014773000
  -0.0001195500    0.0000307600   -0.0014354900
  -0.0000102700   -0.0000126800   -0.0013563800
   0.0052289700   -0.0023046300    0.0023545400
  -0.0004228500    0.0000565000    0.0015290000
  -0.0011343900   -0.0002745900    0.0014840400
   0.0077730400    0.0048299300    0.0055709100
   0.0052290300    0.0023045700    0.0023545700
  -0.0004229200   -0.0000564500    0.0015290300
  -0.0011343400    0.0002746200    0.0014841800
   0.0077730300   -0.0048299300    0.0055708700
   0.0004044500    0.0000359000    0.0014790400
  -0.0001080900   -0.0000520200    0.0014901600
  -0.0004103600    0.0003541500    0.0014108400
   0.0001862500    0.0006755000    0.0015339800
   0.0004044000   -0.0000358900    0.0014790400
  -0.0001080700    0.0000520100    0.0014901000
  -0.0004103500   -0.0003542000    0.0014108300
   0.0001862800   -0.0006755500    0.0015339000
   0.0000955400   -0.0000363900    0.0012646800
  -0.0000435700   -0.0000018100    0.0015020300
  -0.0000696400   -0.0000287700    0.0015401700
   0.0000287400   -0.0000306800    0.0013893200
   0.0000955200    0.0000363700    0.0012647300
  -0.0000435700    0.0000018000    0.0015020900
  -0.0000696200    0.0000287600    0.0015401500
   0.0000287200    0.0000307100    0.0013893600
   0.0000556600   -0.0000014300    0.0015055600
  -0.0000259100    0.0000009000    0.0015382900
  -0.0000498700    0.0000230300    0.0015521900
   0.0000251600    0.0000273300    0.0015367100
   0.0000556200    0.0000014600    0.0015055300
  -0.0000258600   -0.0000009200    0.0015382700
  -0.0000499700   -0.0000230500    0.0015521500
   0.0000252800   -0.0000273700    0.0015367000
   0.0001925600   -0.0000094800   -0.0005817400
  -0.0001401100    0.0001867200   -0.0001501300
   0.0000242400   -0.0000508200   -0.0000862400
  -0.0000309300    0.0000727600   -0.0004023900
   0.0001926100    0.0000095000   -0.0005818000
  -0.0001401700   -0.0001866100   -0.0001501900
   0.0000241600    0.0000508200   -0.0000862000
  -0.0000309200   -0.0000728400   -0.0004023300
  -0.0000464500   -0.0000634000   -0.0001022800
   0.0000847500   -0.0000482100   -0.0000278900
   0.0000586300    0.0000322200   -0.0000630500
  -0.0000920000    0.0000397300   -0.0000993600
  -0.0000465500    0.0000633500   -0.0001023000
   0.0000847800    0.0000480800   -0.0000279100
   0.0000586900   -0.0000322300   -0.0000630200
  -0.0000920600   -0.0000396800   -0.0000993700
  -0.0011346200   -0.0071634500    0.0062596800
   0.0011713800   -0.0019202900   -0.0005238200
   0.0002240600    0.0001968800    0.0000783400
  -0.0001845700   -0.0000826100    0.0009515300
  -0.0011346000    0.0071634900    0.0062596900
   0.0011713300    0.0019203000   -0.0005239500
   0.0002240800   -0.0001968500    0.0000783200
  -0.0001845700    0.0000827200    0.0009514600
   0.0002266300    0.0001119900    0.0002340100
  -0.0002915300    0.0004705600    0.0000013000
  -0.0005895400   -0.0003873300    0.0002999800
   0.0006402200   -0.0002042800    0.0002483800
   0.0002266600   -0.0001120800    0.0002340100
  -0.0002914900   -0.0004706600    0.0000013200
  -0.0005896300    0.0003873000    0.0002999600
   0.0006402500    0.0002040900    0.0002483200
   0.0001033300    0.0000000600   -0.0004185900
  -0.0000981400    0.0000000900   -0.0000036000
   0.0000279300   -0.0000000100   -0.0002011500
   0.0000840000   -0.0000000100   -0.0007451300
  -0.0001104900   -0.0001149100   -0.0001615100
  -0.0000072500    0.0000811800    0.0000127500
   0.0000009900    0.0000953600   -0.0001398900
   0.0001489100    0.0000058100   -0.0003912100
   0.0000339300   -0.0000000700   -0.0000367400
   0.0000470400   -0.0000000600   -0.0000240900
  -0.0000176300   -0.0000000000   -0.0001017500
  -0.0000676900    0.0000000000   -0.0001355800
  -0.0001105600    0.0001148300   -0.0001614900
  -0.0000071400   -0.0000811700    0.0000127200
   0.0000010400   -0.0000954100   -0.0001399000
   0.0001488500   -0.0000058200   -0.0003912000
   0.0125589000    0.0000000200    0.0108572100
   0.0001593800    0.0000000400   -0.0000579600
  -0.0000602800    0.0000000400    0.0005238600
  -0.0018604900   -0.0000000200    0.0017998700
   0.0008364700    0.0003981200   -0.0000273000
   0.0002137600   -0.0003789900   -0.0001178900
  -0.0000551700   -0.0005484500    0.0003654600
  -0.0011639300    0.0009461900    0.0004553000
  -0.0001989500   -0.0000000400   -0.0000135100
  -0.0002560600   -0.0000000300    0.0001880700
   0.0005141300   -0.0000000700    0.0004117300
   0.0001925900   -0.0000000500    0.0001708300
   0.0008364900   -0.0003981900   -0.0000272700
   0.0002137600    0.0003789900   -0.0001178800
  -0.0000552100    0.0005484500    0.0003654400
  -0.0011638600   -0.0009461500    0.0004552900

1    
 -0.0069897595184229   0.0000000000000000  -0.0071514517319644
   0.0515218300   -0.0000001600    0.0130194800
  -0.0066968700    0.0000001100   -0.0330849700
  -0.0005626800    0.0000001600   -0.0328521100
  -0.0099571800   -0.0000001700   -0.0299392100
   0.0045241300    0.0015816100   -0.0315152600
  -0.0007830300   -0.0006144100   -0.0339202500
  -0.0003196200    0.0001759000   -0.0329075600
  -0.0028477100    0.0026780800   -0.0319015200
   0.0004227000    0.0000000100   -0.0328527100
   0.0001586200    0.0000001100   -0.0330808600
  -0.0003303000   -0.0000002500   -0.0328230700
  -0.0001953500    0.0000001000   -0.0327348500
   0.0045240100   -0.0015818400   -0.0315152100
  -0.0007830800    0.0006141300   -0.0339198800
  -0.0003192100   -0.0001765700   -0.0329079000
  -0.0028468400   -0.0026783700   -0.0319015200
   0.0000635900    0.0000007100   -0.0332716400
   0.0000795400   -0.0000001400   -0.0330821400
  -0.0001124800   -0.0000000600   -0.0328886000
  -0.0000588500   -0.0000001000   -0.0329457400
   0.0000872000    0.0000697700   -0.0330144100
   0.0000217100    0.0000023000   -0.0329375200
  -0.0000951500    0.0000213700   -0.0328749900
  -0.0000308600    0.0000507200   -0.0328857800
   0.0000825600   -0.0000001500   -0.0328895800
  -0.0000036400    0.0000001500   -0.0328958800
  -0.0000464700    0.0000000100   -0.0328702600
  -0.0000448900    0.0000003600   -0.0328540400
   0.0000874600   -0.0000698300   -0.0330153700
   0.0000218000   -0.0000024100   -0.0329378500
  -0.0000947900   -0.0000211000   -0.0328753400
  -0.0000309000   -0.0000510800   -0.0328852000
   0.0029824700   -0.0026073100    0.0335070800
  -0.0001775600   -0.0000928100    0.0328413200
  -0.0007427200   -0.0003160100    0.0322863800
  -0.0018021500   -0.0021768200    0.0288219700
   0.0029823300    0.0026074800    0.0335060200
  -0.0001773500    0.0000934000    0.0328407400
  -0.0007427700    0.0003166200    0.0322864200
  -0.0018010900    0.0021766800    0.0288209400
   0.0004132500    0.0001711100    0.0327645400
  -0.0001178500   -0.0000516100    0.0328054900
  -0.0003291000    0.0002637800    0.0325978300
   0.0000036200    0.0003943700    0.0323641100
   0.0004134900   -0.0001715300    0.0327638400
  -0.0001175700    0.0000512300    0.0328056100
  -0.0003296000   -0.0002638600    0.0325978800
   0.0000037700   -0.0003942900    0.0323637600
  -0.0003293700    0.0007997300    0.0321750800
  -0.0002388300    0.0001314500    0.0331554700
  -0.0001341200   -0.0000659300    0.0332546400
   0.0005603800    0.0000943200    0.0330430000
  -0.0003299300   -0.0007993500    0.0321752100
  -0.0002383300   -0.0001312100    0.0331555900
  -0.0001342700    0.0000663300    0.0332546000
   0.0005608700   -0.0000945700    0.0330428500
   0.0000407900   -0.0001499400    0.0331740100
  -0.0001316100   -0.0000146100    0.0331870600
  -0.0000255000   -0.0000908300    0.0332885400
   0.0001062000    0.0000469400    0.0332359100
   0.0000410200    0.0001501300    0.0331738900
  -0.0001317100    0.0000143100    0.0331868500
  -0.0000257100    0.0000903900    0.0332889500
   0.0001062600   -0.0000469300    0.0332362100
  -0.0026990900   -0.0000000100   -0.0133528100
  -0.0002348900    0.0000000100   -0.0017551000
   0.0003020200    0.0000000200   -0.0013991200
   0.0011861400    0.0000000200   -0.0008417600
  -0.0009212400   -0.0007127200   -0.0012966000
   0.0000102200    0.0000654400   -0.0017148700
   0.0002494300   -0.0000990800   -0.0014210400
   0.0006357500   -0.0006914000   -0.0010886600
  -0.0001492900    0.0000000200   -0.0013991800
  -0.0001162600    0.0000000500   -0.0014473100
   0.0001950900    0.0000000400   -0.0014096700
   0.0000818900    0.0000000100   -0.0013949800
  -0.0009212100    0.0007127200   -0.0012967400
   0.0000102300   -0.0000654700   -0.0017150400
   0.0002494000    0.0000990400   -0.0014212000
   0.0006357500    0.0006913900   -0.0010887300
  -0.0005649000    0.0000000900   -0.0012121700
   0.0003280500    0.0000000700   -0.0011729400
   0.0001758000    0.0000001000   -0.0015538800
  -0.0000766800    0.0000001400   -0.0016274100
  -0.0002470900    0.0002021100   -0.0014002700
   0.0001345800    0.0001381400   -0.0015205600
   0.0001209800    0.0000317900   -0.0015640900
   0.0000085100   -0.0000121900   -0.0016440600
  -0.0001027900   -0.0000000500   -0.0015538600
   0.0000365300   -0.0000000500   -0.0015369700
   0.0000992900   -0.0000000700   -0.0015878200
  -0.0000269900   -0.0000001000   -0.0015907200
  -0.0002470800   -0.0002021200   -0.0014001800
   0.0001345400   -0.0001381100   -0.0015204700
   0.0001209600   -0.0000317900   -0.0015638700
   0.0000085600    0.0000121800   -0.0016438300
  -0.0051594400    0.0022329100    0.0006276300
   0.0004317900   -0.0000569100    0.0014705600
   0.0011384800    0.0002776400    0.0015160500
  -0.0080130900   -0.0051056300   -0.0026261400
  -0.0051595100   -0.0022328400    0.0006276600
   0.0004318400    0.0000570200    0.0014706400
   0.0011385100   -0.0002774900    0.0015162400
  -0.0080131100    0.0051057400   -0.0026260200
  -0.0004075600   -0.0000328900    0.0015210700
   0.0001123900    0.0000554100    0.0015087300
   0.0004105100   -0.0003539700    0.0015886900
  -0.0001873200   -0.0006741400    0.0014656700
  -0.0004075200    0.0000328200    0.0015210500
   0.0001123500   -0.0000555200    0.0015086000
   0.0004104600    0.0003538200    0.0015885000
  -0.0001872700    0.0006740400    0.0014655600
  -0.0000957000    0.0000359000    0.0017301500
   0.0000450800    0.0000008900    0.0014933900
   0.0000694100    0.0000282600    0.0014551000
  -0.0000287500    0.0000308700    0.0016069900
  -0.0000957000   -0.0000359300    0.0017300600
   0.0000451100   -0.0000009200    0.0014932700
   0.0000694300   -0.0000282600    0.0014550300
  -0.0000288200   -0.0000308800    0.0016069200
  -0.0000549800    0.0000021000    0.0014899600
   0.0000266200   -0.0000006500    0.0014565700
   0.0000501000   -0.0000228600    0.0014427600
  -0.0000259600   -0.0000265600    0.0014586400
  -0.0000549700   -0.0000020600    0.0014900900
   0.0000265900    0.0000006700    0.0014567000
   0.0000500500    0.0000228500    0.0014428300
  -0.0000258900    0.0000265600    0.0014586900
  -0.0001924500    0.0000103000    0.0005862600
   0.0001405800   -0.0001863600    0.0001507400
  -0.0000241600    0.0000503100    0.0000864200
   0.0000309700   -0.0000735400    0.0004033700
  -0.0001925000   -0.0000102800    0.0005862800
   0.0001405600    0.0001863200    0.0001507500
  -0.0000241000   -0.0000503200    0.0000864500
   0.0000309800    0.0000736100    0.0004033600
   0.0000463400    0.0000633900    0.0001030100
  -0.0000843700    0.0000477300    0.0000277400
  -0.0000575600   -0.0000322400    0.0000624400
   0.0000923000   -0.0000391300    0.0000993600
   0.0000463900   -0.0000633800    0.0001030000
  -0.0000843200   -0.0000476600    0.0000277800
  -0.0000576500    0.0000322700    0.0000624500
   0.0000922800    0.0000390800    0.0000993900
   0.0010915500    0.0069958100   -0.0061076000
  -0.0011531300    0.0019006400    0.0005344700
  -0.0002206700   -0.0001923200   -0.0000782900
   0.0001913500    0.0000990700   -0.0009537100
   0.0010914900   -0.0069957800   -0.0061075700
  -0.0011530200   -0.0019005600    0.0005345200
  -0.0002205900    0.0001925700   -0.0000782400
   0.0001912400   -0.0000988400   -0.0009536700
  -0.0002183500   -0.0001098500   -0.0002321300
   0.0002904800   -0.0004587800   -0.0000002200
   0.0005768100    0.0003792900   -0.0002956100
  -0.0006359100    0.0001940900   -0.0002472100
  -0.0002182500    0.0001098200   -0.0002321500
   0.0002903300    0.0004587200   -0.0000002400
   0.0005767500   -0.0003795500   -0.0002956600
  -0.0006358000   -0.0001943000   -0.0002472200
  -0.0001035400   -0.0000000200    0.0004213500
   0.0000985800   -0.0000000100    0.0000036200
  -0.0000285100    0.0000000600    0.0002021300
  -0.0000830900    0.0000000500    0.0007508300
   0.0001109600    0.0001153300    0.0001619900
   0.0000075900   -0.0000811000   -0.0000126200
  -0.0000008900   -0.0000954200    0.0001399400
  -0.0001488700   -0.0000052500    0.0003918300
  -0.0000336100    0.0000000100    0.0000370800
  -0.0000464500    0.0000000500    0.0000236800
   0.0000182300   -0.0000000000    0.0001015200
   0.0000671200   -0.0000000100    0.0001359700
   0.0001110100   -0.0001153300    0.0001620100
   0.0000075300    0.0000810700   -0.0000125900
  -0.0000009800    0.0000953800    0.0001399700
  -0.0001488000    0.0000052100    0.0003918400
  -0.0120515300    0.0000000200   -0.0102883300
  -0.0001597000    0.0000000800    0.0000595100
   0.0000640900    0.0000002000   -0.0005258100
   0.0018505500    0.0000001100   -0.0017942800
  -0.0008413900   -0.0004086500    0.0000349000
  -0.0002049200    0.0003822700    0.0001154500
   0.0000573200    0.0005483500   -0.0003648900
   0.0011606700   -0.0009466600   -0.0004537700
   0.0001959500    0.0000000300    0.0000142000
   0.0002526300   -0.0000000500   -0.0001848100
  -0.0005102800   -0.0000001400   -0.0004065700
  -0.0001908400   -0.0000000600   -0.0001701000
  -0.0008413800    0.0004085900    0.0000349600
  -0.0002050400   -0.0003822800    0.0001154600
   0.0000572500   -0.0005483800   -0.0003648600
   0.0011609000    0.0009466200   -0.0004537200

65   
  0.0069897595184229   0.0000000000000000   0.0071514517319644
   0.0026706300   -0.0000001600   -0.0211736900
  -0.0009390900    0.0000000100   -0.0339354700
  -0.0003031200   -0.0000000100   -0.0331435600
  -0.0000122500    0.0000000500   -0.0325520700
   0.0009180600   -0.0004646600   -0.0332440700
  -0.0006429500   -0.0006953000   -0.0334451600
  -0.0002504600   -0.0000266100   -0.0331207300
  -0.0000067000    0.0000588600   -0.0328367900
   0.0001469700    0.0000001000   -0.0331427100
  -0.0000117800    0.0000000800   -0.0332179900
  -0.0001961400   -0.0000001800   -0.0331340000
   0.0000418300    0.0000001700   -0.0330247500
   0.0009183400    0.0004649300   -0.0332426500
  -0.0006431500    0.0006954000   -0.0334447800
  -0.0002510700    0.0000267100   -0.0331221700
  -0.0000063900   -0.0000587200   -0.0328381800
   0.0005589900    0.0000001300   -0.0333301900
   0.0001056200    0.0000003800   -0.0329438200
  -0.0001752300   -0.0000001700   -0.0329859800
  -0.0003572000    0.0000002600   -0.0333289400
   0.0002434000    0.0002315900   -0.0331362800
  -0.0000111700   -0.0000110900   -0.0328963900
  -0.0001217700    0.0000265000   -0.0329756800
  -0.0001361300    0.0001359100   -0.0330181200
   0.0001004200    0.0000004500   -0.0329854100
   0.0000201500   -0.0000001200   -0.0329453300
  -0.0001006500    0.0000001300   -0.0329521900
  -0.0000340700    0.0000002400   -0.0330066300
   0.0002427800   -0.0002319400   -0.0331362700
  -0.0000115200    0.0000115000   -0.0328966300
  -0.0001217900   -0.0000272600   -0.0329759400
  -0.0001358400   -0.0001362800   -0.0330174500
   0.0049011600   -0.0019881100    0.0341861200
  -0.0007597100    0.0003498000    0.0333896500
  -0.0008047400   -0.0002904600    0.0326964600
   0.0080798600    0.0051412100    0.0368097600
   0.0049003800    0.0019885700    0.0341853700
  -0.0007600900   -0.0003497000    0.0333888200
  -0.0008043600    0.0002905300    0.0326965800
   0.0080802900   -0.0051411200    0.0368096400
   0.0002655800   -0.0001420800    0.0331487900
  -0.0002207800   -0.0001629200    0.0331331700
  -0.0003027000    0.0002442600    0.0328401900
   0.0003218300    0.0001894600    0.0329351400
   0.0002655100    0.0001420100    0.0331487100
  -0.0002210000    0.0001623100    0.0331335900
  -0.0003025900   -0.0002444400    0.0328403600
   0.0003209400   -0.0001896500    0.0329344400
  -0.0000042000    0.0000603400    0.0329034400
  -0.0000779800    0.0000305200    0.0330782500
  -0.0000395000    0.0000020200    0.0330540900
   0.0001232600    0.0000662200    0.0328384500
  -0.0000039000   -0.0000605300    0.0329043600
  -0.0000779500   -0.0000301300    0.0330778200
  -0.0000396000   -0.0000019400    0.0330531400
   0.0001229500   -0.0000661500    0.0328391000
   0.0000222600   -0.0000328500    0.0330804700
  -0.0000470400   -0.0000185100    0.0331011800
  -0.0000331100    0.0000035800    0.0330780900
   0.0000546800   -0.0000059900    0.0330510100
   0.0000220400    0.0000332900    0.0330796400
  -0.0000471100    0.0000184500    0.0331018900
  -0.0000330700   -0.0000042200    0.0330788200
   0.0000545800    0.0000058900    0.0330506600
  -0.0383172100    0.0000000500   -0.0366003500
   0.0019065900    0.0000002000   -0.0015950100
   0.0004628200    0.0000001800   -0.0015036400
   0.0019095800    0.0000001500   -0.0016102600
  -0.0011734200   -0.0000100200   -0.0016009200
   0.0007311600    0.0008076000   -0.0014242800
   0.0002986900    0.0000043500   -0.0015051800
   0.0013079000   -0.0013848000   -0.0019830700
  -0.0001460400    0.0000000600   -0.0015034200
  -0.0000203500    0.0000000100   -0.0015095100
   0.0001670700    0.0000000100   -0.0014719200
  -0.0000285400    0.0000001900   -0.0015007200
  -0.0011736800    0.0000099200   -0.0016011200
   0.0007309100   -0.0008077200   -0.0014238500
   0.0002989200   -0.0000045800   -0.0015051800
   0.0013081400    0.0013844500   -0.0019837500
  -0.0000714700   -0.0000002300   -0.0014337300
   0.0000417500    0.0000000400   -0.0014135700
   0.0000699400    0.0000003700   -0.0015027200
  -0.0000747400    0.0000000900   -0.0013013700
  -0.0000786300    0.0000585300   -0.0013574200
   0.0000091700    0.0000211400   -0.0014916100
   0.0000564500    0.0000053000   -0.0014980200
   0.0000053600   -0.0000174000   -0.0014893000
  -0.0000525600    0.0000000600   -0.0015030800
   0.0000151300   -0.0000001200   -0.0015024200
   0.0000395900   -0.0000004600   -0.0015088800
   0.0000050000   -0.0000000700   -0.0014927400
  -0.0000782700   -0.0000583500   -0.0013582700
   0.0000085400   -0.0000210200   -0.0014918600
   0.0000561300   -0.0000052300   -0.0014968400
   0.0000059000    0.0000173600   -0.0014888900
   0.0027586400   -0.0034073700    0.0039818900
   0.0003547000   -0.0000883500    0.0015769700
   0.0001869200    0.0000599000    0.0014129500
  -0.0009338500   -0.0002926300    0.0003682600
   0.0027589900    0.0034069000    0.0039811700
   0.0003549800    0.0000885900    0.0015773700
   0.0001867000   -0.0000593200    0.0014137400
  -0.0009343300    0.0002926300    0.0003679300
  -0.0001181200    0.0001585900    0.0015090900
   0.0002561100    0.0001872700    0.0015425400
   0.0001481800   -0.0000794600    0.0014376600
  -0.0001465700    0.0000100900    0.0014815800
  -0.0001184100   -0.0001582200    0.0015097400
   0.0002558000   -0.0001875700    0.0015420400
   0.0001484800    0.0000788600    0.0014369200
  -0.0001463000   -0.0000100900    0.0014818100
  -0.0002224200    0.0000275000    0.0016300600
   0.0000791100   -0.0000017000    0.0014636500
   0.0001515500    0.0000727100    0.0015343900
   0.0000124700    0.0002068100    0.0018579200
  -0.0002223000   -0.0000275000    0.0016304100
   0.0000791300    0.0000019500    0.0014641300
   0.0001515100   -0.0000726300    0.0015345100
   0.0000123200   -0.0002070100    0.0018578100
  -0.0000786400    0.0000015200    0.0014644100
   0.0000505800   -0.0000131200    0.0014589700
   0.0000871000   -0.0000236600    0.0014944600
  -0.0000074100   -0.0000735700    0.0015331800
  -0.0000787200   -0.0000014900    0.0014644400
   0.0000506100    0.0000128800    0.0014589900
   0.0000872300    0.0000235200    0.0014949100
  -0.0000074200    0.0000737700    0.0015338900
   0.0000125000    0.0014050700    0.0018575300
   0.0002269000    0.0000477200   -0.0004689000
  -0.0001212700    0.0000834000    0.0000012700
  -0.0002182300   -0.0006073500    0.0006598000
   0.0000130300   -0.0014055900    0.0018574700
   0.0002272000   -0.0000473300   -0.0004688900
  -0.0001214800   -0.0000831300    0.0000013400
  -0.0002187200    0.0006068500    0.0006597900
   0.0000400100    0.0001392300   -0.0000232900
  -0.0002690600   -0.0002733400   -0.0001407900
   0.0001405900   -0.0000388200   -0.0000081800
   0.0000158100    0.0001260400    0.0000903300
   0.0000393200   -0.0001388200   -0.0000232700
  -0.0002693200    0.0002729500   -0.0001408600
   0.0001411600    0.0000385500   -0.0000082100
   0.0000162600   -0.0001255800    0.0000903500
  -0.0000583000   -0.0004232100    0.0008551000
  -0.0000079000    0.0000463100    0.0002424400
   0.0000147700   -0.0000231000    0.0000027800
   0.0000494500    0.0001045900   -0.0000497300
  -0.0000589900    0.0004223700    0.0008552400
  -0.0000067700   -0.0000467600    0.0002424100
   0.0000153600    0.0000241000    0.0000027800
   0.0000485600   -0.0001040900   -0.0000497300
   0.0000425000   -0.0000901700    0.0000718100
  -0.0000226100    0.0000157400    0.0000983000
  -0.0000006800   -0.0000115100    0.0000017100
  -0.0000237200   -0.0000025400   -0.0000229700
   0.0000429900    0.0000909200    0.0000716500
  -0.0000236000   -0.0000152500    0.0000983300
  -0.0000010300    0.0000105500    0.0000016400
  -0.0000228600    0.0000020200   -0.0000229300
  -0.0000360400    0.0000002600   -0.0003808900
   0.0000632200    0.0000003800   -0.0001812900
  -0.0002151300    0.0000003500    0.0001341100
   0.0027681300    0.0000001200    0.0040838500
   0.0002763300    0.0005470800   -0.0004183900
  -0.0000994500   -0.0002148500   -0.0000964800
   0.0000476600   -0.0000700900    0.0000461200
  -0.0002833300   -0.0001003500    0.0006081500
  -0.0001416900    0.0000000800   -0.0000409500
   0.0000937800    0.0000001000   -0.0000411400
   0.0001714500    0.0000004500    0.0000256100
   0.0000247900    0.0000005900    0.0000443100
   0.0002761000   -0.0005474300   -0.0004183800
  -0.0000995000    0.0002143400   -0.0000965000
   0.0000481300    0.0000692100    0.0000461400
  -0.0002834500    0.0000996400    0.0006081900
   0.0003566700   -0.0000006400    0.0007550000
  -0.0000979400    0.0000004800    0.0001522400
   0.0000827600    0.0000007500   -0.0000085000
  -0.0004878700   -0.0000003000    0.0009559400
  -0.0000634900    0.0000095600    0.0001762400
   0.0000025400   -0.0000235700    0.0000815000
  -0.0000118000    0.0000247700   -0.0000058600
   0.0000877000   -0.0000650600    0.0000170700
   0.0000184300    0.0000004400    0.0000181600
   0.0000104300   -0.0000004900    0.0000212300
   0.0000323900   -0.0000004900   -0.0000179200
  -0.0000286800    0.0000004800   -0.0000126000
  -0.0000641800   -0.0000093900    0.0001761000
   0.0000012500    0.0000236200    0.0000814900
  -0.0000108500   -0.0000250400   -0.0000058800
   0.0000886500    0.0000648100    0.0000169700

65   
 -0.0069897595184229   0.0000000000000000  -0.0071514517319644
  -0.0027327100    0.0000003700   -0.0444552200
   0.0009485500    0.0000014000   -0.0321493400
   0.0003035200    0.0000007100   -0.0329502200
   0.0000120900    0.0000013000   -0.0335431000
  -0.0009161800    0.0004676000   -0.0328455400
   0.0006429300    0.0006963000   -0.0326412800
   0.0002512800    0.0000275500   -0.0329708400
   0.0000048900   -0.0000576400   -0.0332557800
  -0.0001471900   -0.0000005300   -0.0329475800
   0.0000109500   -0.0000001300   -0.0328731000
   0.0001971000   -0.0000012200   -0.0329586400
  -0.0000414100   -0.0000002200   -0.0330666200
  -0.0009162100   -0.0004674800   -0.0328461500
   0.0006419900   -0.0006976700   -0.0326429600
   0.0002509300   -0.0000273900   -0.0329734800
   0.0000054700    0.0000565100   -0.0332570000
  -0.0005679800    0.0000021200   -0.0327295600
  -0.0001047400    0.0000004400   -0.0331200600
   0.0001774700    0.0000016500   -0.0330792100
   0.0003604600    0.0000001300   -0.0327307200
  -0.0002456800   -0.0002317800   -0.0329185600
   0.0000100800    0.0000144300   -0.0331608700
   0.0001230800   -0.0000272500   -0.0330843700
   0.0001379900   -0.0001360600   -0.0330402700
  -0.0001008400   -0.0000006200   -0.0330711900
  -0.0000218400   -0.0000026200   -0.0331124100
   0.0001019900   -0.0000002400   -0.0331081000
   0.0000353900   -0.0000021600   -0.0330525000
  -0.0002455800    0.0002299500   -0.0329226800
   0.0000101000   -0.0000124000   -0.0331663900
   0.0001229500    0.0000261500   -0.0330893300
   0.0001378400    0.0001379400   -0.0330446100
  -0.0048705500    0.0019354200    0.0318483600
   0.0007601000   -0.0003470700    0.0326753800
   0.0008109400    0.0002931500    0.0333693200
  -0.0083122600   -0.0054039900    0.0292019000
  -0.0048722300   -0.0019333700    0.0318442700
   0.0007610800    0.0003487300    0.0326719300
   0.0008093900   -0.0002917900    0.0333668100
  -0.0083097900    0.0054054700    0.0291979100
  -0.0002664900    0.0001439900    0.0329054300
   0.0002207300    0.0001634000    0.0329236400