phonopy:
  version: 2.8.1
  frequency_unit_conversion_factor: 15.633302
  symmetry_tolerance: 1.00000e-05
  configuration:
    create_displacements: ".true."
    dim: "4 4 2"

physical_unit:
  atomic_mass: "AMU"
  length: "angstrom"
  force_constants: "eV/angstrom^2"

space_group:
  type: "P4/nmm"
  number: 129
  Hall_symbol: "P 4ab 2ab -1ab"

supercell_matrix:
- [   4,   0,   0 ]
- [   0,   4,   0 ]
- [   0,   0,   2 ]

primitive_cell:
  lattice:
  - [     4.171338156156005,     0.000000000000000,     0.000000000000000 ] # a
  - [     0.000000000000000,     4.171338156156005,     0.000000000000000 ] # b
  - [     0.000000000000000,     0.000000000000000,     8.535665183565991 ] # c
  points:
  - symbol: La # 1
    coordinates: [  0.000000000000000,  0.500000000000000,  0.724779618045989 ]
    mass: 138.905470
  - symbol: La # 2
    coordinates: [  0.500000000000000,  0.000000000000000,  0.275220381954013 ]
    mass: 138.905470
  - symbol: Se # 3
    coordinates: [  0.000000000000000,  0.500000000000000,  0.364266443909777 ]
    mass: 78.960000
  - symbol: Se # 4
    coordinates: [  0.500000000000000,  0.000000000000000,  0.635733556090224 ]
    mass: 78.960000
  - symbol: Se # 5
    coordinates: [  0.000000000000000,  0.000000000000000,  0.000000000000000 ]
    mass: 78.960000
  - symbol: Se # 6
    coordinates: [  0.500000000000000,  0.500000000000000,  0.000000000000000 ]
    mass: 78.960000
  reciprocal_lattice: # without 2pi
  - [     0.239731223546145,     0.000000000000000,     0.000000000000000 ] # a*
  - [     0.000000000000000,     0.239731223546145,     0.000000000000000 ] # b*
  - [     0.000000000000000,     0.000000000000000,     0.117155485658614 ] # c*

unit_cell:
  lattice:
  - [     4.171338156156005,     0.000000000000000,     0.000000000000000 ] # a
  - [    -0.000000000000000,     4.171338156156005,     0.000000000000000 ] # b
  - [    -0.000000000000000,     0.000000000000000,     8.535665183565991 ] # c
  points:
  - symbol: La # 1
    coordinates: [ -0.000000000000000,  0.500000000000000,  0.724779618045989 ]
    mass: 138.905470
    reduced_to: 1
  - symbol: La # 2
    coordinates: [  0.500000000000000, -0.000000000000000,  0.275220381954013 ]
    mass: 138.905470
    reduced_to: 2
  - symbol: Se # 3
    coordinates: [ -0.000000000000000,  0.500000000000000,  0.364266443909777 ]
    mass: 78.960000
    reduced_to: 3
  - symbol: Se # 4
    coordinates: [  0.500000000000000,  0.000000000000000,  0.635733556090224 ]
    mass: 78.960000
    reduced_to: 4
  - symbol: Se # 5
    coordinates: [ -0.000000000000000, -0.000000000000000,  0.000000000000000 ]
    mass: 78.960000
    reduced_to: 5
  - symbol: Se # 6
    coordinates: [  0.500000000000000,  0.500000000000000,  0.000000000000000 ]
    mass: 78.960000
    reduced_to: 6

supercell:
  lattice:
  - [    16.685352624624020,     0.000000000000000,     0.000000000000000 ] # a
  - [     0.000000000000000,    16.685352624624020,     0.000000000000000 ] # b
  - [     0.000000000000000,     0.000000000000000,    17.071330367131981 ] # c
  points:
  - symbol: La # 1
    coordinates: [  0.000000000000000,  0.125000000000000,  0.362389809022994 ]
    mass: 138.905470
    reduced_to: 1
  - symbol: La # 2
    coordinates: [  0.250000000000000,  0.125000000000000,  0.362389809022994 ]
    mass: 138.905470
    reduced_to: 1
  - symbol: La # 3
    coordinates: [  0.500000000000000,  0.125000000000000,  0.362389809022994 ]
    mass: 138.905470
    reduced_to: 1
  - symbol: La # 4
    coordinates: [  0.750000000000000,  0.125000000000000,  0.362389809022994 ]
    mass: 138.905470
    reduced_to: 1
  - symbol: La # 5
    coordinates: [  0.000000000000000,  0.375000000000000,  0.362389809022994 ]
    mass: 138.905470
    reduced_to: 1
  - symbol: La # 6
    coordinates: [  0.250000000000000,  0.375000000000000,  0.362389809022994 ]
    mass: 138.905470
    reduced_to: 1
  - symbol: La # 7
    coordinates: [  0.500000000000000,  0.375000000000000,  0.362389809022994 ]
    mass: 138.905470
    reduced_to: 1
  - symbol: La # 8
    coordinates: [  0.750000000000000,  0.375000000000000,  0.362389809022994 ]
    mass: 138.905470
    reduced_to: 1
  - symbol: La # 9
    coordinates: [  0.000000000000000,  0.625000000000000,  0.362389809022994 ]
    mass: 138.905470
    reduced_to: 1
  - symbol: La # 10
    coordinates: [  0.250000000000000,  0.625000000000000,  0.362389809022994 ]
    mass: 138.905470
    reduced_to: 1
  - symbol: La # 11
    coordinates: [  0.500000000000000,  0.625000000000000,  0.362389809022994 ]
    mass: 138.905470
    reduced_to: 1
  - symbol: La # 12
    coordinates: [  0.750000000000000,  0.625000000000000,  0.362389809022994 ]
    mass: 138.905470
    reduced_to: 1
  - symbol: La # 13
    coordinates: [  0.000000000000000,  0.875000000000000,  0.362389809022994 ]
    mass: 138.905470
    reduced_to: 1
  - symbol: La # 14
    coordinates: [  0.250000000000000,  0.875000000000000,  0.362389809022994 ]
    mass: 138.905470
    reduced_to: 1
  - symbol: La # 15
    coordinates: [  0.500000000000000,  0.875000000000000,  0.362389809022994 ]
    mass: 138.905470
    reduced_to: 1
  - symbol: La # 16
    coordinates: [  0.750000000000000,  0.875000000000000,  0.362389809022994 ]
    mass: 138.905470
    reduced_to: 1
  - symbol: La # 17
    coordinates: [  0.000000000000000,  0.125000000000000,  0.862389809022994 ]
    mass: 138.905470
    reduced_to: 1
  - symbol: La # 18
    coordinates: [  0.250000000000000,  0.125000000000000,  0.862389809022994 ]
    mass: 138.905470
    reduced_to: 1
  - symbol: La # 19
    coordinates: [  0.500000000000000,  0.125000000000000,  0.862389809022994 ]
    mass: 138.905470
    reduced_to: 1
  - symbol: La # 20
    coordinates: [  0.750000000000000,  0.125000000000000,  0.862389809022994 ]
    mass: 138.905470
    reduced_to: 1
  - symbol: La # 21
    coordinates: [  0.000000000000000,  0.375000000000000,  0.862389809022994 ]
    mass: 138.905470
    reduced_to: 1
  - symbol: La # 22
    coordinates: [  0.250000000000000,  0.375000000000000,  0.862389809022994 ]
    mass: 138.905470
    reduced_to: 1
  - symbol: La # 23
    coordinates: [  0.500000000000000,  0.375000000000000,  0.862389809022994 ]
    mass: 138.905470
    reduced_to: 1
  - symbol: La # 24
    coordinates: [  0.750000000000000,  0.375000000000000,  0.862389809022994 ]
    mass: 138.905470
    reduced_to: 1
  - symbol: La # 25
    coordinates: [  0.000000000000000,  0.625000000000000,  0.862389809022994 ]
    mass: 138.905470
    reduced_to: 1
  - symbol: La # 26
    coordinates: [  0.250000000000000,  0.625000000000000,  0.862389809022994 ]
    mass: 138.905470
    reduced_to: 1
  - symbol: La # 27
    coordinates: [  0.500000000000000,  0.625000000000000,  0.862389809022994 ]
    mass: 138.905470
    reduced_to: 1
  - symbol: La # 28
    coordinates: [  0.750000000000000,  0.625000000000000,  0.862389809022994 ]
    mass: 138.905470
    reduced_to: 1
  - symbol: La # 29
    coordinates: [  0.000000000000000,  0.875000000000000,  0.862389809022994 ]
    mass: 138.905470
    reduced_to: 1
  - symbol: La # 30
    coordinates: [  0.250000000000000,  0.875000000000000,  0.862389809022994 ]
    mass: 138.905470
    reduced_to: 1
  - symbol: La # 31
    coordinates: [  0.500000000000000,  0.875000000000000,  0.862389809022994 ]
    mass: 138.905470
    reduced_to: 1
  - symbol: La # 32
    coordinates: [  0.750000000000000,  0.875000000000000,  0.862389809022994 ]
    mass: 138.905470
    reduced_to: 1
  - symbol: La # 33
    coordinates: [  0.125000000000000,  0.000000000000000,  0.137610190977007 ]
    mass: 138.905470
    reduced_to: 33
  - symbol: La # 34
    coordinates: [  0.375000000000000,  0.000000000000000,  0.137610190977007 ]
    mass: 138.905470
    reduced_to: 33
  - symbol: La # 35
    coordinates: [  0.625000000000000,  0.000000000000000,  0.137610190977007 ]
    mass: 138.905470
    reduced_to: 33
  - symbol: La # 36
    coordinates: [  0.875000000000000,  0.000000000000000,  0.137610190977007 ]
    mass: 138.905470
    reduced_to: 33
  - symbol: La # 37
    coordinates: [  0.125000000000000,  0.250000000000000,  0.137610190977007 ]
    mass: 138.905470
    reduced_to: 33
  - symbol: La # 38
    coordinates: [  0.375000000000000,  0.250000000000000,  0.137610190977007 ]
    mass: 138.905470
    reduced_to: 33
  - symbol: La # 39
    coordinates: [  0.625000000000000,  0.250000000000000,  0.137610190977007 ]
    mass: 138.905470
    reduced_to: 33
  - symbol: La # 40
    coordinates: [  0.875000000000000,  0.250000000000000,  0.137610190977007 ]
    mass: 138.905470
    reduced_to: 33
  - symbol: La # 41
    coordinates: [  0.125000000000000,  0.500000000000000,  0.137610190977007 ]
    mass: 138.905470
    reduced_to: 33
  - symbol: La # 42
    coordinates: [  0.375000000000000,  0.500000000000000,  0.137610190977007 ]
    mass: 138.905470
    reduced_to: 33
  - symbol: La # 43
    coordinates: [  0.625000000000000,  0.500000000000000,  0.137610190977007 ]
    mass: 138.905470
    reduced_to: 33
  - symbol: La # 44
    coordinates: [  0.875000000000000,  0.500000000000000,  0.137610190977007 ]
    mass: 138.905470
    reduced_to: 33
  - symbol: La # 45
    coordinates: [  0.125000000000000,  0.750000000000000,  0.137610190977007 ]
    mass: 138.905470
    reduced_to: 33
  - symbol: La # 46
    coordinates: [  0.375000000000000,  0.750000000000000,  0.137610190977007 ]
    mass: 138.905470
    reduced_to: 33
  - symbol: La # 47
    coordinates: [  0.625000000000000,  0.750000000000000,  0.137610190977007 ]
    mass: 138.905470
    reduced_to: 33
  - symbol: La # 48
    coordinates: [  0.875000000000000,  0.750000000000000,  0.137610190977007 ]
    mass: 138.905470
    reduced_to: 33
  - symbol: La # 49
    coordinates: [  0.125000000000000,  0.000000000000000,  0.637610190977007 ]
    mass: 138.905470
    reduced_to: 33
  - symbol: La # 50
    coordinates: [  0.375000000000000,  0.000000000000000,  0.637610190977007 ]
    mass: 138.905470
    reduced_to: 33
  - symbol: La # 51
    coordinates: [  0.625000000000000,  0.000000000000000,  0.637610190977007 ]
    mass: 138.905470
    reduced_to: 33
  - symbol: La # 52
    coordinates: [  0.875000000000000,  0.000000000000000,  0.637610190977007 ]
    mass: 138.905470
    reduced_to: 33
  - symbol: La # 53
    coordinates: [  0.125000000000000,  0.250000000000000,  0.637610190977007 ]
    mass: 138.905470
    reduced_to: 33
  - symbol: La # 54
    coordinates: [  0.375000000000000,  0.250000000000000,  0.637610190977007 ]
    mass: 138.905470
    reduced_to: 33
  - symbol: La # 55
    coordinates: [  0.625000000000000,  0.250000000000000,  0.637610190977007 ]
    mass: 138.905470
    reduced_to: 33
  - symbol: La # 56
    coordinates: [  0.875000000000000,  0.250000000000000,  0.637610190977007 ]
    mass: 138.905470
    reduced_to: 33
  - symbol: La # 57
    coordinates: [  0.125000000000000,  0.500000000000000,  0.637610190977007 ]
    mass: 138.905470
    reduced_to: 33
  - symbol: La # 58
    coordinates: [  0.375000000000000,  0.500000000000000,  0.637610190977007 ]
    mass: 138.905470
    reduced_to: 33
  - symbol: La # 59
    coordinates: [  0.625000000000000,  0.500000000000000,  0.637610190977007 ]
    mass: 138.905470
    reduced_to: 33
  - symbol: La # 60
    coordinates: [  0.875000000000000,  0.500000000000000,  0.637610190977007 ]
    mass: 138.905470
    reduced_to: 33
  - symbol: La # 61
    coordinates: [  0.125000000000000,  0.750000000000000,  0.637610190977007 ]
    mass: 138.905470
    reduced_to: 33
  - symbol: La # 62
    coordinates: [  0.375000000000000,  0.750000000000000,  0.637610190977007 ]
    mass: 138.905470
    reduced_to: 33
  - symbol: La # 63
    coordinates: [  0.625000000000000,  0.750000000000000,  0.637610190977007 ]
    mass: 138.905470
    reduced_to: 33
  - symbol: La # 64
    coordinates: [  0.875000000000000,  0.750000000000000,  0.637610190977007 ]
    mass: 138.905470
    reduced_to: 33
  - symbol: Se # 65
    coordinates: [  0.000000000000000,  0.125000000000000,  0.182133221954889 ]
    mass: 78.960000
    reduced_to: 65
  - symbol: Se # 66
    coordinates: [  0.250000000000000,  0.125000000000000,  0.182133221954889 ]
    mass: 78.960000
    reduced_to: 65
  - symbol: Se # 67
    coordinates: [  0.500000000000000,  0.125000000000000,  0.182133221954889 ]
    mass: 78.960000
    reduced_to: 65
  - symbol: Se # 68
    coordinates: [  0.750000000000000,  0.125000000000000,  0.182133221954889 ]
    mass: 78.960000
    reduced_to: 65
  - symbol: Se # 69
    coordinates: [  0.000000000000000,  0.375000000000000,  0.182133221954889 ]
    mass: 78.960000
    reduced_to: 65
  - symbol: Se # 70
    coordinates: [  0.250000000000000,  0.375000000000000,  0.182133221954889 ]
    mass: 78.960000
    reduced_to: 65
  - symbol: Se # 71
    coordinates: [  0.500000000000000,  0.375000000000000,  0.182133221954889 ]
    mass: 78.960000
    reduced_to: 65
  - symbol: Se # 72
    coordinates: [  0.750000000000000,  0.375000000000000,  0.182133221954889 ]
    mass: 78.960000
    reduced_to: 65
  - symbol: Se # 73
    coordinates: [  0.000000000000000,  0.625000000000000,  0.182133221954889 ]
    mass: 78.960000
    reduced_to: 65
  - symbol: Se # 74
    coordinates: [  0.250000000000000,  0.625000000000000,  0.182133221954889 ]
    mass: 78.960000
    reduced_to: 65
  - symbol: Se # 75
    coordinates: [  0.500000000000000,  0.625000000000000,  0.182133221954889 ]
    mass: 78.960000
    reduced_to: 65
  - symbol: Se # 76
    coordinates: [  0.750000000000000,  0.625000000000000,  0.182133221954889 ]
    mass: 78.960000
    reduced_to: 65
  - symbol: Se # 77
    coordinates: [  0.000000000000000,  0.875000000000000,  0.182133221954889 ]
    mass: 78.960000
    reduced_to: 65
  - symbol: Se # 78
    coordinates: [  0.250000000000000,  0.875000000000000,  0.182133221954889 ]
    mass: 78.960000
    reduced_to: 65
  - symbol: Se # 79
    coordinates: [  0.500000000000000,  0.875000000000000,  0.182133221954889 ]
    mass: 78.960000
    reduced_to: 65
  - symbol: Se # 80
    coordinates: [  0.750000000000000,  0.875000000000000,  0.182133221954889 ]
    mass: 78.960000
    reduced_to: 65
  - symbol: Se # 81
    coordinates: [  0.000000000000000,  0.125000000000000,  0.682133221954889 ]
    mass: 78.960000
    reduced_to: 65
  - symbol: Se # 82
    coordinates: [  0.250000000000000,  0.125000000000000,  0.682133221954889 ]
    mass: 78.960000
    reduced_to: 65
  - symbol: Se # 83
    coordinates: [  0.500000000000000,  0.125000000000000,  0.682133221954889 ]
    mass: 78.960000
    reduced_to: 65
  - symbol: Se # 84
    coordinates: [  0.750000000000000,  0.125000000000000,  0.682133221954889 ]
    mass: 78.960000
    reduced_to: 65
  - symbol: Se # 85
    coordinates: [  0.000000000000000,  0.375000000000000,  0.682133221954889 ]
    mass: 78.960000
    reduced_to: 65
  - symbol: Se # 86
    coordinates: [  0.250000000000000,  0.375000000000000,  0.682133221954889 ]
    mass: 78.960000
    reduced_to: 65
  - symbol: Se # 87
    coordinates: [  0.500000000000000,  0.375000000000000,  0.682133221954889 ]
    mass: 78.960000
    reduced_to: 65
  - symbol: Se # 88
    coordinates: [  0.750000000000000,  0.375000000000000,  0.682133221954889 ]
    mass: 78.960000
    reduced_to: 65
  - symbol: Se # 89
    coordinates: [  0.000000000000000,  0.625000000000000,  0.682133221954889 ]
    mass: 78.960000
    reduced_to: 65
  - symbol: Se # 90
    coordinates: [  0.250000000000000,  0.625000000000000,  0.682133221954889 ]
    mass: 78.960000
    reduced_to: 65
  - symbol: Se # 91
    coordinates: [  0.500000000000000,  0.625000000000000,  0.682133221954889 ]
    mass: 78.960000
    reduced_to: 65
  - symbol: Se # 92
    coordinates: [  0.750000000000000,  0.625000000000000,  0.682133221954889 ]
    mass: 78.960000
    reduced_to: 65
  - symbol: Se # 93
    coordinates: [  0.000000000000000,  0.875000000000000,  0.682133221954889 ]
    mass: 78.960000
    reduced_to: 65
  - symbol: Se # 94
    coordinates: [  0.250000000000000,  0.875000000000000,  0.682133221954889 ]
    mass: 78.960000
    reduced_to: 65
  - symbol: Se # 95
    coordinates: [  0.500000000000000,  0.875000000000000,  0.682133221954889 ]
    mass: 78.960000
    reduced_to: 65
  - symbol: Se # 96
    coordinates: [  0.750000000000000,  0.875000000000000,  0.682133221954889 ]
    mass: 78.960000
    reduced_to: 65
  - symbol: Se # 97
    coordinates: [  0.125000000000000,  0.000000000000000,  0.317866778045112 ]
    mass: 78.960000
    reduced_to: 97
  - symbol: Se # 98
    coordinates: [  0.375000000000000,  0.000000000000000,  0.317866778045112 ]
    mass: 78.960000
    reduced_to: 97
  - symbol: Se # 99
    coordinates: [  0.625000000000000,  0.000000000000000,  0.317866778045112 ]
    mass: 78.960000
    reduced_to: 97
  - symbol: Se # 100
    coordinates: [  0.875000000000000,  0.000000000000000,  0.317866778045112 ]
    mass: 78.960000
    reduced_to: 97
  - symbol: Se # 101
    coordinates: [  0.125000000000000,  0.250000000000000,  0.317866778045112 ]
    mass: 78.960000
    reduced_to: 97
  - symbol: Se # 102
    coordinates: [  0.375000000000000,  0.250000000000000,  0.317866778045112 ]
    mass: 78.960000
    reduced_to: 97
  - symbol: Se # 103
    coordinates: [  0.625000000000000,  0.250000000000000,  0.317866778045112 ]
    mass: 78.960000
    reduced_to: 97
  - symbol: Se # 104
    coordinates: [  0.875000000000000,  0.250000000000000,  0.317866778045112 ]
    mass: 78.960000
    reduced_to: 97
  - symbol: Se # 105
    coordinates: [  0.125000000000000,  0.500000000000000,  0.317866778045112 ]
    mass: 78.960000
    reduced_to: 97
  - symbol: Se # 106
    coordinates: [  0.375000000000000,  0.500000000000000,  0.317866778045112 ]
    mass: 78.960000
    reduced_to: 97
  - symbol: Se # 107
    coordinates: [  0.625000000000000,  0.500000000000000,  0.317866778045112 ]
    mass: 78.960000
    reduced_to: 97
  - symbol: Se # 108
    coordinates: [  0.875000000000000,  0.500000000000000,  0.317866778045112 ]
    mass: 78.960000
    reduced_to: 97
  - symbol: Se # 109
    coordinates: [  0.125000000000000,  0.750000000000000,  0.317866778045112 ]
    mass: 78.960000
    reduced_to: 97
  - symbol: Se # 110
    coordinates: [  0.375000000000000,  0.750000000000000,  0.317866778045112 ]
    mass: 78.960000
    reduced_to: 97
  - symbol: Se # 111
    coordinates: [  0.625000000000000,  0.750000000000000,  0.317866778045112 ]
    mass: 78.960000
    reduced_to: 97
  - symbol: Se # 112
    coordinates: [  0.875000000000000,  0.750000000000000,  0.317866778045112 ]
    mass: 78.960000
    reduced_to: 97
  - symbol: Se # 113
    coordinates: [  0.125000000000000,  0.000000000000000,  0.817866778045112 ]
    mass: 78.960000
    reduced_to: 97
  - symbol: Se # 114
    coordinates: [  0.375000000000000,  0.000000000000000,  0.817866778045112 ]
    mass: 78.960000
    reduced_to: 97
  - symbol: Se # 115
    coordinates: [  0.625000000000000,  0.000000000000000,  0.817866778045112 ]
    mass: 78.960000
    reduced_to: 97
  - symbol: Se # 116
    coordinates: [  0.875000000000000,  0.000000000000000,  0.817866778045112 ]
    mass: 78.960000
    reduced_to: 97
  - symbol: Se # 117
    coordinates: [  0.125000000000000,  0.250000000000000,  0.817866778045112 ]
    mass: 78.960000
    reduced_to: 97
  - symbol: Se # 118
    coordinates: [  0.375000000000000,  0.250000000000000,  0.817866778045112 ]
    mass: 78.960000
    reduced_to: 97
  - symbol: Se # 119
    coordinates: [  0.625000000000000,  0.250000000000000,  0.817866778045112 ]
    mass: 78.960000
    reduced_to: 97
  - symbol: Se # 120
    coordinates: [  0.875000000000000,  0.250000000000000,  0.817866778045112 ]
    mass: 78.960000
    reduced_to: 97
  - symbol: Se # 121
    coordinates: [  0.125000000000000,  0.500000000000000,  0.817866778045112 ]
    mass: 78.960000
    reduced_to: 97
  - symbol: Se # 122
    coordinates: [  0.375000000000000,  0.500000000000000,  0.817866778045112 ]
    mass: 78.960000
    reduced_to: 97
  - symbol: Se # 123
    coordinates: [  0.625000000000000,  0.500000000000000,  0.817866778045112 ]
    mass: 78.960000
    reduced_to: 97
  - symbol: Se # 124
    coordinates: [  0.875000000000000,  0.500000000000000,  0.817866778045112 ]
    mass: 78.960000
    reduced_to: 97
  - symbol: Se # 125
    coordinates: [  0.125000000000000,  0.750000000000000,  0.817866778045112 ]
    mass: 78.960000
    reduced_to: 97
  - symbol: Se # 126
    coordinates: [  0.375000000000000,  0.750000000000000,  0.817866778045112 ]
    mass: 78.960000
    reduced_to: 97
  - symbol: Se # 127
    coordinates: [  0.625000000000000,  0.750000000000000,  0.817866778045112 ]
    mass: 78.960000
    reduced_to: 97
  - symbol: Se # 128
    coordinates: [  0.875000000000000,  0.750000000000000,  0.817866778045112 ]
    mass: 78.960000
    reduced_to: 97
  - symbol: Se # 129
    coordinates: [  0.000000000000000,  0.000000000000000,  0.000000000000000 ]
    mass: 78.960000
    reduced_to: 129
  - symbol: Se # 130
    coordinates: [  0.250000000000000,  0.000000000000000,  0.000000000000000 ]
    mass: 78.960000
    reduced_to: 129
  - symbol: Se # 131
    coordinates: [  0.500000000000000,  0.000000000000000,  0.000000000000000 ]
    mass: 78.960000
    reduced_to: 129
  - symbol: Se # 132
    coordinates: [  0.750000000000000,  0.000000000000000,  0.000000000000000 ]
    mass: 78.960000
    reduced_to: 129
  - symbol: Se # 133
    coordinates: [  0.000000000000000,  0.250000000000000,  0.000000000000000 ]
    mass: 78.960000
    reduced_to: 129
  - symbol: Se # 134
    coordinates: [  0.250000000000000,  0.250000000000000,  0.000000000000000 ]
    mass: 78.960000
    reduced_to: 129
  - symbol: Se # 135
    coordinates: [  0.500000000000000,  0.250000000000000,  0.000000000000000 ]
    mass: 78.960000
    reduced_to: 129
  - symbol: Se # 136
    coordinates: [  0.750000000000000,  0.250000000000000,  0.000000000000000 ]
    mass: 78.960000
    reduced_to: 129
  - symbol: Se # 137
    coordinates: [  0.000000000000000,  0.500000000000000,  0.000000000000000 ]
    mass: 78.960000
    reduced_to: 129
  - symbol: Se # 138
    coordinates: [  0.250000000000000,  0.500000000000000,  0.000000000000000 ]
    mass: 78.960000
    reduced_to: 129
  - symbol: Se # 139
    coordinates: [  0.500000000000000,  0.500000000000000,  0.000000000000000 ]
    mass: 78.960000
    reduced_to: 129
  - symbol: Se # 140
    coordinates: [  0.750000000000000,  0.500000000000000,  0.000000000000000 ]
    mass: 78.960000
    reduced_to: 129
  - symbol: Se # 141
    coordinates: [  0.000000000000000,  0.750000000000000,  0.000000000000000 ]
    mass: 78.960000
    reduced_to: 129
  - symbol: Se # 142
    coordinates: [  0.250000000000000,  0.750000000000000,  0.000000000000000 ]
    mass: 78.960000
    reduced_to: 129
  - symbol: Se # 143
    coordinates: [  0.500000000000000,  0.750000000000000,  0.000000000000000 ]
    mass: 78.960000
    reduced_to: 129
  - symbol: Se # 144
    coordinates: [  0.750000000000000,  0.750000000000000,  0.000000000000000 ]
    mass: 78.960000
    reduced_to: 129
  - symbol: Se # 145
    coordinates: [  0.000000000000000,  0.000000000000000,  0.500000000000000 ]
    mass: 78.960000
    reduced_to: 129
  - symbol: Se # 146
    coordinates: [  0.250000000000000,  0.000000000000000,  0.500000000000000 ]
    mass: 78.960000
    reduced_to: 129
  - symbol: Se # 147
    coordinates: [  0.500000000000000,  0.000000000000000,  0.500000000000000 ]
    mass: 78.960000
    reduced_to: 129
  - symbol: Se # 148
    coordinates: [  0.750000000000000,  0.000000000000000,  0.500000000000000 ]
    mass: 78.960000
    reduced_to: 129
  - symbol: Se # 149
    coordinates: [  0.000000000000000,  0.250000000000000,  0.500000000000000 ]
    mass: 78.960000
    reduced_to: 129
  - symbol: Se # 150
    coordinates: [  0.250000000000000,  0.250000000000000,  0.500000000000000 ]
    mass: 78.960000
    reduced_to: 129
  - symbol: Se # 151
    coordinates: [  0.500000000000000,  0.250000000000000,  0.500000000000000 ]
    mass: 78.960000
    reduced_to: 129
  - symbol: Se # 152
    coordinates: [  0.750000000000000,  0.250000000000000,  0.500000000000000 ]
    mass: 78.960000
    reduced_to: 129
  - symbol: Se # 153
    coordinates: [  0.000000000000000,  0.500000000000000,  0.500000000000000 ]
    mass: 78.960000
    reduced_to: 129
  - symbol: Se # 154
    coordinates: [  0.250000000000000,  0.500000000000000,  0.500000000000000 ]
    mass: 78.960000
    reduced_to: 129
  - symbol: Se # 155
    coordinates: [  0.500000000000000,  0.500000000000000,  0.500000000000000 ]
    mass: 78.960000
    reduced_to: 129
  - symbol: Se # 156
    coordinates: [  0.750000000000000,  0.500000000000000,  0.500000000000000 ]
    mass: 78.960000
    reduced_to: 129
  - symbol: Se # 157
    coordinates: [  0.000000000000000,  0.750000000000000,  0.500000000000000 ]
    mass: 78.960000
    reduced_to: 129
  - symbol: Se # 158
    coordinates: [  0.250000000000000,  0.750000000000000,  0.500000000000000 ]
    mass: 78.960000
    reduced_to: 129
  - symbol: Se # 159
    coordinates: [  0.500000000000000,  0.750000000000000,  0.500000000000000 ]
    mass: 78.960000
    reduced_to: 129
  - symbol: Se # 160
    coordinates: [  0.750000000000000,  0.750000000000000,  0.500000000000000 ]
    mass: 78.960000
    reduced_to: 129
  - symbol: Se # 161
    coordinates: [  0.125000000000000,  0.125000000000000,  0.000000000000000 ]
    mass: 78.960000
    reduced_to: 161
  - symbol: Se # 162
    coordinates: [  0.375000000000000,  0.125000000000000,  0.000000000000000 ]
    mass: 78.960000
    reduced_to: 161
  - symbol: Se # 163
    coordinates: [  0.625000000000000,  0.125000000000000,  0.000000000000000 ]
    mass: 78.960000
    reduced_to: 161
  - symbol: Se # 164
    coordinates: [  0.875000000000000,  0.125000000000000,  0.000000000000000 ]
    mass: 78.960000
    reduced_to: 161
  - symbol: Se # 165
    coordinates: [  0.125000000000000,  0.375000000000000,  0.000000000000000 ]
    mass: 78.960000
    reduced_to: 161
  - symbol: Se # 166
    coordinates: [  0.375000000000000,  0.375000000000000,  0.000000000000000 ]
    mass: 78.960000
    reduced_to: 161
  - symbol: Se # 167
    coordinates: [  0.625000000000000,  0.375000000000000,  0.000000000000000 ]
    mass: 78.960000
    reduced_to: 161
  - symbol: Se # 168
    coordinates: [  0.875000000000000,  0.375000000000000,  0.000000000000000 ]
    mass: 78.960000
    reduced_to: 161
  - symbol: Se # 169
    coordinates: [  0.125000000000000,  0.625000000000000,  0.000000000000000 ]
    mass: 78.960000
    reduced_to: 161
  - symbol: Se # 170
    coordinates: [  0.375000000000000,  0.625000000000000,  0.000000000000000 ]
    mass: 78.960000
    reduced_to: 161
  - symbol: Se # 171
    coordinates: [  0.625000000000000,  0.625000000000000,  0.000000000000000 ]
    mass: 78.960000
    reduced_to: 161
  - symbol: Se # 172
    coordinates: [  0.875000000000000,  0.625000000000000,  0.000000000000000 ]
    mass: 78.960000
    reduced_to: 161
  - symbol: Se # 173
    coordinates: [  0.125000000000000,  0.875000000000000,  0.000000000000000 ]
    mass: 78.960000
    reduced_to: 161
  - symbol: Se # 174
    coordinates: [  0.375000000000000,  0.875000000000000,  0.000000000000000 ]
    mass: 78.960000
    reduced_to: 161
  - symbol: Se # 175
    coordinates: [  0.625000000000000,  0.875000000000000,  0.000000000000000 ]
    mass: 78.960000
    reduced_to: 161
  - symbol: Se # 176
    coordinates: [  0.875000000000000,  0.875000000000000,  0.000000000000000 ]
    mass: 78.960000
    reduced_to: 161
  - symbol: Se # 177
    coordinates: [  0.125000000000000,  0.125000000000000,  0.500000000000000 ]
    mass: 78.960000
    reduced_to: 161
  - symbol: Se # 178
    coordinates: [  0.375000000000000,  0.125000000000000,  0.500000000000000 ]
    mass: 78.960000
    reduced_to: 161
  - symbol: Se # 179
    coordinates: [  0.625000000000000,  0.125000000000000,  0.500000000000000 ]
    mass: 78.960000
    reduced_to: 161
  - symbol: Se # 180
    coordinates: [  0.875000000000000,  0.125000000000000,  0.500000000000000 ]
    mass: 78.960000
    reduced_to: 161
  - symbol: Se # 181
    coordinates: [  0.125000000000000,  0.375000000000000,  0.500000000000000 ]
    mass: 78.960000
    reduced_to: 161
  - symbol: Se # 182
    coordinates: [  0.375000000000000,  0.375000000000000,  0.500000000000000 ]
    mass: 78.960000
    reduced_to: 161
  - symbol: Se # 183
    coordinates: [  0.625000000000000,  0.375000000000000,  0.500000000000000 ]
    mass: 78.960000
    reduced_to: 161
  - symbol: Se # 184
    coordinates: [  0.875000000000000,  0.375000000000000,  0.500000000000000 ]
    mass: 78.960000
    reduced_to: 161
  - symbol: Se # 185
    coordinates: [  0.125000000000000,  0.625000000000000,  0.500000000000000 ]
    mass: 78.960000
    reduced_to: 161
  - symbol: Se # 186
    coordinates: [  0.375000000000000,  0.625000000000000,  0.500000000000000 ]
    mass: 78.960000
    reduced_to: 161
  - symbol: Se # 187
    coordinates: [  0.625000000000000,  0.625000000000000,  0.500000000000000 ]
    mass: 78.960000
    reduced_to: 161
  - symbol: Se # 188
    coordinates: [  0.875000000000000,  0.625000000000000,  0.500000000000000 ]
    mass: 78.960000
    reduced_to: 161
  - symbol: Se # 189
    coordinates: [  0.125000000000000,  0.875000000000000,  0.500000000000000 ]
    mass: 78.960000
    reduced_to: 161
  - symbol: Se # 190
    coordinates: [  0.375000000000000,  0.875000000000000,  0.500000000000000 ]
    mass: 78.960000
    reduced_to: 161
  - symbol: Se # 191
    coordinates: [  0.625000000000000,  0.875000000000000,  0.500000000000000 ]
    mass: 78.960000
    reduced_to: 161
  - symbol: Se # 192
    coordinates: [  0.875000000000000,  0.875000000000000,  0.500000000000000 ]
    mass: 78.960000
    reduced_to: 161

displacements:
- atom:    1
  displacement: