192  
18   

1    
  0.0099999998044564   0.0000000000000000  -0.0000019775924100
  -0.0559649700   -0.0115509700   -0.0014974100
   0.0020276900    0.0000890800    0.0000245500
  -0.0030452800    0.0014434200   -0.0003280700
   0.0012923400    0.0000349200    0.0000581800
  -0.0004624800   -0.0001451300   -0.0000707400
   0.0007397000   -0.0001334500   -0.0000399000
  -0.0030413400   -0.0013259800   -0.0001674100
   0.0012915700   -0.0003572700   -0.0000549700
  -0.0006481800   -0.0002375600   -0.0000512000
   0.0008373500   -0.0001161700   -0.0000353200
  -0.0007176600   -0.0000189200   -0.0001904600
   0.0008079200   -0.0001103700   -0.0000182300
  -0.0006907100   -0.0001924700   -0.0000744300
   0.0007801700   -0.0001596700   -0.0000249800
  -0.0007193200   -0.0004585500    0.0000881100
   0.0008086400   -0.0001546300   -0.0000486300
  -0.0031479100    0.0005101700    0.0013944100
   0.0013346100   -0.0000189500    0.0001360900
  -0.0010826800    0.0015883200    0.0016119500
   0.0009923800    0.0001729800   -0.0000206900
  -0.0005618900    0.0001689700    0.0002461900
   0.0007589500    0.0001551100   -0.0000235200
  -0.0007655700   -0.0007619100    0.0008447200
   0.0009301100    0.0000710100    0.0000276700
  -0.0031454600   -0.0001335300   -0.0014917300
   0.0013347200    0.0001339600   -0.0002449100
  -0.0010817100    0.0014801300   -0.0015211900
   0.0009917000    0.0001619200   -0.0001486100
  -0.0005624900    0.0001736500   -0.0003727700
   0.0007598500    0.0001741700   -0.0000630800
  -0.0007653000   -0.0008418200   -0.0011522800
   0.0009295000    0.0000776500   -0.0000546800
  -0.0002721500   -0.0001607500    0.0004333500
  -0.0000129100    0.0003414500   -0.0000773900
  -0.0002652500    0.0004131300    0.0005462300
   0.0005410600    0.0002468400   -0.0004126300
  -0.0004245600    0.0003593800    0.0002536400
   0.0004159000    0.0000199900    0.0000362700
  -0.0004208200    0.0000369100    0.0001608900
   0.0001992300    0.0001460800    0.0001386700
   0.0011651300   -0.0029870100   -0.0028931100
   0.0033980600    0.0020482800    0.0015836800
   0.0020641600    0.0039174400   -0.0040145200
   0.0014548000   -0.0008497800    0.0008567100
  -0.0001769400    0.0006741800   -0.0002546500
   0.0001038000   -0.0001461000   -0.0000091700
  -0.0002413000   -0.0001877100   -0.0001955500
  -0.0000235400    0.0005165500    0.0000362400
   0.0016678000   -0.0039715600    0.0039691600
   0.0018329300    0.0008803900   -0.0016035700
   0.0016615400    0.0034374200    0.0033979500
   0.0018349500   -0.0013448100   -0.0004094000
  -0.0002091900    0.0002960100    0.0003166500
  -0.0000399000   -0.0004530200    0.0000664800
  -0.0002089800   -0.0005682100    0.0003513900
  -0.0000411400    0.0001439800   -0.0000434100
  -0.0002684700   -0.0004877300   -0.0003919900
   0.0001605000   -0.0001263500    0.0004021500
  -0.0002678300    0.0000753900   -0.0003788300
   0.0001585400   -0.0002461400    0.0002767500
  -0.0004192700   -0.0000090500   -0.0001351000
   0.0002586400   -0.0002087900    0.0000918600
  -0.0004197700   -0.0003361600   -0.0000925200
   0.0002582000   -0.0000489600    0.0000497800
   0.0107189900    0.0112220800    0.0012243500
  -0.0017750800   -0.0003941200    0.0017678100
   0.0038425600   -0.0039223700    0.0015952100
  -0.0014641800   -0.0006927500    0.0016429400
  -0.0002840100   -0.0005109400    0.0017441000
  -0.0007023100   -0.0002532600    0.0015833000
  -0.0001217200   -0.0000440700    0.0016631000
  -0.0007575800   -0.0002679900    0.0016741500
  -0.0003298500   -0.0005069400    0.0017066500
  -0.0006861800   -0.0001969900    0.0016741100
  -0.0003151300   -0.0001500000    0.0016696000
  -0.0006848500   -0.0002654800    0.0016068700
  -0.0003710000    0.0000151600    0.0019104900
  -0.0006374900   -0.0002610600    0.0016053100
  -0.0003441900   -0.0007938200    0.0013568700
  -0.0006329300   -0.0001504200    0.0016868400
  -0.0003298100   -0.0003003400   -0.0018730300
   0.0061015100    0.0006040200   -0.0068151800
   0.0001673600   -0.0002130000   -0.0014534500
   0.0010484200   -0.0016241400   -0.0031308500
   0.0003695700   -0.0001718900   -0.0016509400
   0.0006882500   -0.0003043600   -0.0016400000
  -0.0000688000   -0.0000208600   -0.0017820500
   0.0011039600   -0.0005239300   -0.0017292100
   0.0002731700   -0.0002772400   -0.0016519000
   0.0008934200   -0.0002193400   -0.0016156100
   0.0003987900   -0.0002897800   -0.0016130200
   0.0007443300    0.0000872500   -0.0018592600
   0.0004211900   -0.0002134400   -0.0015995900
   0.0006825000   -0.0002748200   -0.0020883800
   0.0003234600   -0.0001605400   -0.0016314700
   0.0009480900   -0.0006496600   -0.0018758700
   0.0001809700    0.0000106200    0.0017278700
  -0.0009984900    0.0004638900    0.0015459700
  -0.0012866200   -0.0019070500    0.0006995300
  -0.0011768200    0.0005233900    0.0016773400
  -0.0001571700    0.0003481500    0.0021139600
  -0.0007239300    0.0002409700    0.0015988200
  -0.0003225500    0.0001120200    0.0019002700
  -0.0006584300    0.0003038600    0.0015740300
  -0.0004080300    0.0017410900    0.0033904200
  -0.0009014900    0.0000926700    0.0015095800
   0.0000045500    0.0007816900    0.0013583800
  -0.0009434600    0.0002298100    0.0017921000
  -0.0001321200    0.0007336500    0.0008819900
  -0.0006726200    0.0001395800    0.0017747900
  -0.0003970400    0.0005989300    0.0020827400
  -0.0006506400    0.0001718200    0.0015864800
   0.0002769400    0.0001727100   -0.0003533700
  -0.0002947700    0.0000538400    0.0000172300
   0.0003489900   -0.0000341800   -0.0003739100
  -0.0003464500    0.0000557200    0.0000169500
   0.0002558900   -0.0001687400   -0.0001892800
  -0.0002913900    0.0000594300    0.0000261300
   0.0002088900    0.0002574400   -0.0001952700
  -0.0002474100    0.0000676000    0.0000176700
   0.0029286500   -0.0001011600   -0.0002193400
  -0.0008812100    0.0001413200    0.0001071800
   0.0042695000    0.0021508200   -0.0018022900
  -0.0006400600    0.0000745000    0.0000573800
   0.0002929600   -0.0004020100    0.0002140900
  -0.0003013500    0.0000263900    0.0000603900
   0.0002698100    0.0003618500    0.0001466500
  -0.0003056700    0.0000198500    0.0000423000
   0.0001311500    0.0000400000   -0.0011427300
  -0.0005342100    0.0001182400    0.0005264500
   0.0001597100   -0.0004905300   -0.0006424600
  -0.0003134100    0.0003800400    0.0001155200
   0.0001667000    0.0000085300   -0.0001733200
  -0.0001777100    0.0000795100   -0.0000817600
   0.0001914100    0.0004427700   -0.0004215800
  -0.0001378300   -0.0000623400    0.0001269500
   0.0001379800    0.0002399100    0.0011007100
  -0.0006465100    0.0002061200   -0.0006958300
   0.0001491400   -0.0004554200    0.0004638200
  -0.0002425000    0.0002363800   -0.0002278700
   0.0001640900    0.0000200100    0.0000975700
  -0.0001899000    0.0000957700   -0.0000352600
   0.0001997000    0.0005263900    0.0004339300
  -0.0002726500   -0.0003013200   -0.0002699500
   0.0003403900    0.0001501300   -0.0016180200
   0.0007764500    0.0005449600   -0.0019583900
   0.0003837500    0.0000402500   -0.0017676800
   0.0007507000    0.0014560100   -0.0007539200
   0.0004239700    0.0001400200   -0.0016936700
   0.0006318600    0.0004446600   -0.0013919900
   0.0004005100    0.0001842000   -0.0015589700
   0.0007258000    0.0003236300   -0.0019583700
  -0.0006143000    0.0004790800   -0.0016218600
   0.0054615200   -0.0012053900    0.0047411600
  -0.0002393500    0.0001257300   -0.0018311100
   0.0004633300   -0.0002185200    0.0002090200
   0.0003507200    0.0002118700   -0.0016368600
   0.0006926800    0.0003648800   -0.0017614300
   0.0002318400    0.0003465500   -0.0016210900
   0.0010658700    0.0000736600   -0.0020305600
   0.0038629100   -0.0006882300    0.0010022300
  -0.0007204900   -0.0000391200    0.0000203900
   0.0038022100    0.0014113200    0.0013959000
  -0.0007311500   -0.0000825600    0.0000033300
   0.0002999400   -0.0005069900   -0.0001181900
  -0.0002849500   -0.0000562400    0.0000121400
   0.0002750500    0.0002412700   -0.0000386000
  -0.0002948800   -0.0000581400    0.0000697900
   0.0003063000    0.0001050300    0.0004382500
  -0.0003191200   -0.0000659400    0.0000213100
   0.0003188900   -0.0001145900    0.0004642900
  -0.0003196600   -0.0000448700    0.0000468400
   0.0002394300   -0.0002796900    0.0002592400
  -0.0002679600   -0.0000454600    0.0000549500
   0.0002290200    0.0001273200    0.0002851900
  -0.0002709300   -0.0000500300    0.0000261500
   0.0162512400   -0.0003333600   -0.0001868800
  -0.0010850200    0.0002475500    0.0000004700
   0.0000776900   -0.0011658100    0.0000273900
  -0.0005621300    0.0004887400   -0.0002020100
   0.0001155200   -0.0000699700   -0.0000334800
  -0.0001423700   -0.0000881000   -0.0000330500
   0.0001766300    0.0010424400   -0.0000497200
  -0.0006594800   -0.0008146600    0.0002455700
   0.0001537900   -0.0000394500   -0.0000386800
  -0.0002014100   -0.0001103300   -0.0000264600
   0.0001775400   -0.0001626100   -0.0000420400
  -0.0002101100   -0.0000378800    0.0000233600
   0.0001798900   -0.0000463900   -0.0000406800
  -0.0002063900   -0.0000619900   -0.0000447400
   0.0001848700    0.0000894900   -0.0000445000
  -0.0002031800   -0.0000713200   -0.0000995800

1    
 -0.0099999998044564   0.0000000000000000   0.0000019775924100
   0.0567307200    0.0115339500    0.0014560400
  -0.0014391400   -0.0004227500   -0.0001193400
   0.0036351500   -0.0018082200    0.0002378700
  -0.0007033900   -0.0003680500   -0.0001527600
   0.0010485500   -0.0001906100   -0.0000238000
  -0.0001572900   -0.0002031700   -0.0000549000
   0.0036381000    0.0010171400    0.0000743000
  -0.0007044300    0.0000194300   -0.0000376100
   0.0012369100   -0.0000985000   -0.0000460300
  -0.0002528500   -0.0002170300   -0.0000594100
   0.0013090100   -0.0003157100    0.0000936200
  -0.0002258500   -0.0002236700   -0.0000783500
   0.0012788200   -0.0001403200   -0.0000208200
  -0.0001957300   -0.0001770100   -0.0000707900
   0.0013075800    0.0001254200   -0.0001851600
  -0.0002252700   -0.0001803600   -0.0000468300
   0.0037450400   -0.0001747700   -0.0015181300
  -0.0007465500    0.0003547200   -0.0002296100
   0.0016810000   -0.0012636900   -0.0017195200
  -0.0004073700    0.0001625600   -0.0000736400
   0.0011491000    0.0001668200   -0.0003425900
  -0.0001768800    0.0001791900   -0.0000741900
   0.0013598900    0.0011047000   -0.0009483300
  -0.0003455700    0.0002611200   -0.0001248200
   0.0037460600    0.0004680600    0.0014229500
  -0.0007460500    0.0002018100    0.0001475100
   0.0016819700   -0.0011545900    0.0014364100
  -0.0004067400    0.0001727900    0.0000527600
   0.0011485000    0.0001622000    0.0002809400
  -0.0001752400    0.0001605900   -0.0000318300
   0.0013608300    0.0011846600    0.0010641800
  -0.0003450300    0.0002591000   -0.0000385900
  -0.0003125200    0.0004926600   -0.0003383800
  -0.0005733200   -0.0000074000    0.0001722300
  -0.0003197800   -0.0000751000   -0.0004512100
  -0.0011314000    0.0000813000    0.0005061700
  -0.0001590100   -0.0000249600   -0.0001586700
  -0.0010034000    0.0003135900    0.0000593300
  -0.0001645300    0.0002969800   -0.0000668400
  -0.0007853500    0.0001898900   -0.0000436100
  -0.0017476700    0.0032872400    0.0029573600
  -0.0039905400   -0.0017162100   -0.0014832200
  -0.0026315000   -0.0035436400    0.0040669100
  -0.0020418800    0.0011820900   -0.0007538100
  -0.0004061700   -0.0003387300    0.0003489200
  -0.0006891300    0.0004773000    0.0001068200
  -0.0003402400    0.0005210600    0.0002904300
  -0.0005637300   -0.0001795400    0.0000613300
  -0.0022345500    0.0035985800   -0.0038361200
  -0.0024132100   -0.0012087900    0.0016940200
  -0.0022415400   -0.0037337000   -0.0032670700
  -0.0024125800    0.0010051200    0.0004985400
  -0.0003754100   -0.0006296300   -0.0002195000
  -0.0005438200    0.0001162300    0.0000258500
  -0.0003749000    0.0002328000   -0.0002555100
  -0.0005448800   -0.0004774300    0.0001355300
  -0.0003153400    0.0001513200    0.0004887600
  -0.0007465600   -0.0002070500   -0.0003054300
  -0.0003146100   -0.0004086000    0.0004716500
  -0.0007477400   -0.0000918500   -0.0001808800
  -0.0001635200   -0.0003262300    0.0002317200
  -0.0008448000   -0.0001235700    0.0000034000
  -0.0001634400    0.0000019200    0.0001896100
  -0.0008456700   -0.0002848400    0.0000478500
  -0.0122143500   -0.0121115700    0.0020493200
   0.0007151000   -0.0001044600    0.0015535600
  -0.0050702500    0.0035995300    0.0017267700
   0.0004049300    0.0001915900    0.0016759500
  -0.0007702200    0.0000153300    0.0015747400
  -0.0003509200   -0.0002429800    0.0017353800
  -0.0009329400   -0.0004536900    0.0016548600
  -0.0002960200   -0.0002287000    0.0016449900
  -0.0007239000    0.0000112100    0.0016122900
  -0.0003668000   -0.0002990800    0.0016450300
  -0.0007388800   -0.0003475500    0.0016488600
  -0.0003681400   -0.0002309600    0.0017119500
  -0.0006832400   -0.0005165000    0.0014040000
  -0.0004154900   -0.0002357100    0.0017135900
  -0.0007098100    0.0003008300    0.0019643100
  -0.0004197700   -0.0003456300    0.0016320900
   0.0013762900   -0.0001962400   -0.0014487200
  -0.0052758800   -0.0010981400    0.0036966200
   0.0008854800   -0.0002829500   -0.0018642100
   0.0000005700    0.0011286700   -0.0001896000
   0.0006839200   -0.0003245800   -0.0016680600
   0.0003648200   -0.0001936200   -0.0016789600
   0.0011204500   -0.0004747600   -0.0015375600
  -0.0000481900    0.0000298900   -0.0015884500
   0.0007797000   -0.0002192800   -0.0016670300
   0.0001585100   -0.0002781600   -0.0017038000
   0.0006548100   -0.0002069900   -0.0017060300
   0.0003080200   -0.0005871200   -0.0014569400
   0.0006324300   -0.0002833300   -0.0017192400
   0.0003706600   -0.0002221000   -0.0012280400
   0.0007299200   -0.0003358500   -0.0016875700
   0.0001047800    0.0001535900   -0.0014451700
  -0.0012335100    0.0004877200    0.0015898400
  -0.0000564100    0.0000331400    0.0017719000
   0.0002345200    0.0024205500    0.0026295700
   0.0001219600   -0.0000258900    0.0016427100
  -0.0008976000    0.0001484800    0.0012051700
  -0.0003288800    0.0002552500    0.0017197800
  -0.0007318200    0.0003844400    0.0014182200
  -0.0003946500    0.0001922200    0.0017446200
  -0.0006469100   -0.0012471900   -0.0000741800
  -0.0001523700    0.0004030000    0.0018085700
  -0.0010573200   -0.0002879100    0.0019673600
  -0.0001102900    0.0002666400    0.0015274300
  -0.0009230800   -0.0002390000    0.0024415900
  -0.0003800100    0.0003558600    0.0015451100
  -0.0006567500   -0.0001034800    0.0012355900
  -0.0004022000    0.0003239500    0.0017321300
  -0.0003022500   -0.0000599900    0.0004425400
   0.0002689400    0.0000586800    0.0000681400
  -0.0003749900    0.0001467500    0.0004630100
   0.0003207900    0.0000577100    0.0000682400
  -0.0002815400    0.0002833800    0.0002770600
   0.0002663900    0.0000533800    0.0000589500
  -0.0002340400   -0.0001466300    0.0002826800
   0.0002221100    0.0000450900    0.0000676000
  -0.0029519100    0.0001807500    0.0002729500
   0.0008512700   -0.0000268300   -0.0000213000
  -0.0043187900   -0.0020103300    0.0018524000
   0.0006142600    0.0000383200    0.0000281600
  -0.0003182900    0.0005186700   -0.0001296800
   0.0002753800    0.0000864500    0.0000240900
  -0.0002949500   -0.0002523700   -0.0000616000
   0.0002796900    0.0000922500    0.0000422000
  -0.0001013700    0.0000711800    0.0010531500
   0.0005550100   -0.0000045500   -0.0006041200
  -0.0001299800    0.0006019400    0.0005558200
   0.0003396700   -0.0002665700   -0.0001989000
  -0.0001405600    0.0001044100    0.0000885500
   0.0002037300    0.0000330200   -0.0000018600
  -0.0001625200   -0.0003274000    0.0003345000
   0.0001639100    0.0001747400   -0.0002112300
  -0.0001083700   -0.0001262200   -0.0011811300
   0.0006675400   -0.0000907400    0.0006039600
  -0.0001211700    0.0005644800   -0.0005461400
   0.0002687200   -0.0001238100    0.0001417200
  -0.0001381600    0.0000925100   -0.0001830200
   0.0002160300    0.0000164900   -0.0000512600
  -0.0001701800   -0.0004128900   -0.0005178100
   0.0002983000    0.0004110900    0.0001816000
   0.0007128300    0.0003462000   -0.0017007500
   0.0002757300   -0.0000478600   -0.0013596000
   0.0006700300    0.0004550500   -0.0015520600
   0.0003030300   -0.0009698600   -0.0025751000
   0.0006298100    0.0003562000   -0.0016258300
   0.0004210100    0.0000528800   -0.0019275100
   0.0006529500    0.0003116800   -0.0017592400
   0.0003268700    0.0001731000   -0.0013587700
   0.0016602900    0.0000188200   -0.0016961500
  -0.0046549800    0.0016478100   -0.0082763700
   0.0012894800    0.0003707300   -0.0014886900
   0.0005877500    0.0007161800   -0.0035363100
   0.0007027100    0.0002842600   -0.0016818600
   0.0003604900    0.0001312000   -0.0015572600
   0.0008211100    0.0001503100   -0.0016973600
  -0.0000110000    0.0004252200   -0.0012847200
  -0.0038946800    0.0005449900   -0.0008912100
   0.0006944300   -0.0000732400    0.0000645800
  -0.0038426300   -0.0014907600   -0.0012704800
   0.0007043500   -0.0000311100    0.0000811600
  -0.0003252400    0.0003987400    0.0002037800
   0.0002590100   -0.0000565100    0.0000731900
  -0.0003003600   -0.0003577500    0.0001237300
   0.0002687200   -0.0000555300    0.0000162800
  -0.0003315700   -0.0002186400   -0.0003570900
   0.0002934600   -0.0000471700    0.0000631500
  -0.0003447200    0.0000015300   -0.0003834900
   0.0002940300   -0.0000672900    0.0000377800
  -0.0002651500    0.0001680000   -0.0001761200
   0.0002429400   -0.0000678600    0.0000299100
  -0.0002542500   -0.0002422800   -0.0002026400
   0.0002455700   -0.0000634200    0.0000584800
  -0.0153992300    0.0002040200    0.0000994300
   0.0011160300   -0.0003598900   -0.0000855400
  -0.0000483000    0.0010491300   -0.0001125400
   0.0005803900   -0.0005952000    0.0001152800
  -0.0000890900   -0.0000431700   -0.0000515400
   0.0001680300   -0.0000251200   -0.0000519800
  -0.0001475400   -0.0011507400   -0.0000353800
   0.0006793200    0.0006932400   -0.0003285800
  -0.0001276200   -0.0000733400   -0.0000464200
   0.0002275100   -0.0000022200   -0.0000589000
  -0.0001518600    0.0000497400   -0.0000428000
   0.0002367800   -0.0000743200   -0.0001091400
  -0.0001538300   -0.0000669700   -0.0000442400
   0.0002328800   -0.0000515500   -0.0000403600
  -0.0001589000   -0.0002027100   -0.0000406600
   0.0002292800   -0.0000425500    0.0000146400

1    
  0.0000000000000000   0.0100000000000000   0.0000000000000000
  -0.0110998900   -0.0618670600    0.0015464600
   0.0005477400   -0.0003334700   -0.0000593100
  -0.0008849400    0.0107962100   -0.0000706200
   0.0001037800   -0.0002211100   -0.0000570900
   0.0003160200    0.0010068600    0.0000092500
   0.0003267600    0.0001386300   -0.0000233300
   0.0019120600    0.0106359500    0.0001771900
   0.0004959400   -0.0002198900   -0.0000428900
   0.0002238900   -0.0009650800   -0.0001215000
   0.0003439200   -0.0002992800   -0.0000491700
   0.0000011400   -0.0000012500   -0.0001206300
   0.0003036700   -0.0001585800   -0.0000490700
   0.0002672500    0.0002942500    0.0000304100
   0.0003017600   -0.0000362000   -0.0000347700
   0.0004424500   -0.0000037100   -0.0000708400
   0.0003504700   -0.0001602300   -0.0000383900
   0.0005879500   -0.0059921600   -0.0012005700
   0.0003262700   -0.0000473300   -0.0000474200
  -0.0010238000    0.0026654700    0.0030036400
   0.0002983600    0.0001166200    0.0000271100
   0.0002880900    0.0010795500   -0.0000701700
   0.0002850100    0.0003838000   -0.0000521700
   0.0013067300    0.0024868300   -0.0021928100
   0.0003844200    0.0002076700   -0.0001347500
  -0.0000524900   -0.0059946200    0.0005971100
   0.0004797800   -0.0000477000   -0.0000441000
  -0.0011311800    0.0026642000   -0.0030145500
   0.0002874600    0.0001162500   -0.0001191400
   0.0002909700    0.0010783900   -0.0001480600
   0.0003057300    0.0003838400   -0.0000857400
   0.0012273500    0.0024847100    0.0019884600
   0.0003891000    0.0002107000    0.0000388700
  -0.0006211400   -0.0002255400   -0.0001940600
  -0.0001211900   -0.0000293200   -0.0001512900
  -0.0000482800   -0.0002580700    0.0001970600
  -0.0002093000    0.0000411200    0.0000493300
  -0.0001005800    0.0005730500    0.0003498700
  -0.0004406400    0.0002183300    0.0003343600
  -0.0004254400    0.0005804800   -0.0001733600
  -0.0003173600    0.0004537500   -0.0000492800
  -0.0034245400   -0.0009650100   -0.0001976800
   0.0015945000    0.0012296200    0.0013003400
   0.0034449700   -0.0006738900    0.0003859000
  -0.0013134100   -0.0017608700   -0.0010125700
   0.0002139700    0.0009731200   -0.0001637900
  -0.0006034400    0.0007804600   -0.0000365900
  -0.0006460400    0.0009149800    0.0002048700
   0.0000509200    0.0007737100    0.0002275400
  -0.0038707600   -0.0011744300    0.0004977200
   0.0008802900   -0.0006883700   -0.0013046600
   0.0034994100   -0.0011865400   -0.0001485300
  -0.0013336100   -0.0006865200    0.0009493200
   0.0001081500    0.0006182500    0.0002449300
  -0.0006042900    0.0004258700    0.0000849500
  -0.0007562800    0.0006171500   -0.0001387400
  -0.0000117400    0.0004278900   -0.0001399000
  -0.0005362100   -0.0005613900    0.0001328600
  -0.0002174700   -0.0003643600    0.0003361100
   0.0000282500   -0.0005591100   -0.0002092000
  -0.0003356600   -0.0003653400    0.0000816500
  -0.0001236500    0.0002169900   -0.0001971800
  -0.0004118400    0.0000484300   -0.0001924300
  -0.0004525700    0.0002176500    0.0002867400
  -0.0002529600    0.0000471300    0.0001451500
   0.0086429100    0.0092339000    0.0013963100
  -0.0005675400   -0.0000028500    0.0016157000
  -0.0021224800    0.0033368800    0.0025115500
  -0.0007544100   -0.0002603900    0.0017949700
  -0.0003481400   -0.0003124300    0.0014775400
  -0.0006496800   -0.0003648200    0.0015968300
  -0.0011004200   -0.0003165900    0.0013803200
  -0.0003667000   -0.0002298900    0.0015695400
  -0.0005728600   -0.0000213200    0.0017857800
  -0.0005108300   -0.0001908300    0.0017036100
  -0.0004165800   -0.0000859300    0.0018063800
  -0.0005889500   -0.0002459400    0.0017055000
  -0.0004941100   -0.0004218400    0.0015720700
  -0.0005811600   -0.0003058700    0.0016144500
  -0.0005723400   -0.0004179900    0.0014292200
  -0.0004739700   -0.0002352600    0.0016120100
   0.0003041100    0.0000956000   -0.0018167100
   0.0013845100   -0.0008610900   -0.0025931200
   0.0003644600   -0.0004089200   -0.0017122900
   0.0012289200    0.0001925100   -0.0008782900
   0.0005800600   -0.0002991800   -0.0015433300
   0.0005154300   -0.0002308200   -0.0013299200
   0.0007403100   -0.0003097700   -0.0015716100
  -0.0004551500   -0.0000497400   -0.0017183600
   0.0004483200   -0.0001960500   -0.0017139000
   0.0006862000   -0.0000607200   -0.0016939600
   0.0004340800   -0.0002989600   -0.0016617400
   0.0007243900   -0.0003079300   -0.0018521200
   0.0005634300   -0.0003167400   -0.0016128500
   0.0005493400   -0.0006412500   -0.0015679500
   0.0005644300   -0.0001768700   -0.0016472700
   0.0002817500   -0.0000398400   -0.0015346400
  -0.0011653400    0.0001874600    0.0014906200
  -0.0003686100    0.0001897000    0.0016279500
  -0.0004583400    0.0009447500    0.0016231400
  -0.0006476400    0.0004173500    0.0015962300
   0.0000034800    0.0000859500    0.0017737200
  -0.0006717200    0.0002887600    0.0017241200
  -0.0005858100   -0.0001073600    0.0017181000
  -0.0004440700    0.0001190100    0.0016818300
  -0.0007343400    0.0002713500    0.0013070000
  -0.0004157800    0.0002178500    0.0015082900
  -0.0002705300    0.0009713400    0.0009051700
  -0.0006902600    0.0003295600    0.0016806100
  -0.0002645800   -0.0003179200    0.0022500900
  -0.0006579300    0.0002645600    0.0017223400
  -0.0006737400    0.0003866200    0.0022346600
  -0.0004656400    0.0001925600    0.0017273400
  -0.0000184700    0.0004307600    0.0005789700
  -0.0000499100    0.0001580000    0.0000583300
   0.0000303000    0.0006291400   -0.0004525400
  -0.0000110100    0.0001451000    0.0000074500
  -0.0000642000   -0.0003977900   -0.0003198200
  -0.0000120500   -0.0000175900    0.0000203900
   0.0000328600   -0.0004468500    0.0003739000
  -0.0000286800   -0.0000602400    0.0000759100
  -0.0007663100    0.0038433600   -0.0003584500
  -0.0002217600    0.0001604800    0.0000232800
   0.0022614200    0.0100008400   -0.0056954100
   0.0000391900    0.0002675900    0.0000243300
  -0.0001540600   -0.0012644300    0.0004295900
   0.0000437100   -0.0000869400    0.0001087200
   0.0000187000   -0.0010970000   -0.0001512200
  -0.0000820600   -0.0001119600    0.0000088400
  -0.0000022800    0.0015295200    0.0000157000
   0.0001142300    0.0005236000   -0.0000418300
  -0.0005536500   -0.0004410600   -0.0007306700
   0.0000713800    0.0000340000   -0.0002105000
   0.0000259800   -0.0003938800   -0.0000823100
   0.0000457500   -0.0002420000   -0.0000669900
   0.0005611900   -0.0004519800    0.0005412500
  -0.0001884500   -0.0000874900    0.0001920400
  -0.0000774700    0.0015222500    0.0000996900
  -0.0002559500    0.0005561800   -0.0003141000
  -0.0005212400   -0.0004331300    0.0005961900
   0.0001698400    0.0001194400    0.0001667400
  -0.0000015000   -0.0003993500   -0.0000311900
   0.0000318400   -0.0002728600   -0.0000317900
   0.0005517300   -0.0004667600   -0.0006070500
  -0.0001173300   -0.0001916900   -0.0003086000
   0.0005456900    0.0002905200   -0.0015787300
   0.0005173500    0.0002984300   -0.0013141000
   0.0004706100    0.0002790400   -0.0016698700
   0.0006866800    0.0005875600   -0.0013244200
   0.0004892300    0.0001914000   -0.0017478200
   0.0005402600   -0.0001062400   -0.0021862200
   0.0005534900    0.0002133400   -0.0016416300
   0.0003612800    0.0002621000   -0.0017223700
   0.0006032600    0.0005643200   -0.0015543800
   0.0000671500   -0.0004495400   -0.0000098000
   0.0002319000    0.0002044000   -0.0017553100
   0.0024108000    0.0014184100   -0.0035346900
   0.0004302400    0.0001756000   -0.0017329300
   0.0005736900    0.0002180700   -0.0017353000
   0.0006722200    0.0000914700   -0.0016343700
  -0.0001824700   -0.0004227100   -0.0016967600
  -0.0003141100    0.0054562500   -0.0006622500
  -0.0001997000    0.0000751900    0.0000745600
   0.0021836400    0.0096056500    0.0058719600
   0.0000945300    0.0001395800    0.0000821300
  -0.0000911000   -0.0013358500   -0.0003090200
   0.0000375500   -0.0002278200   -0.0000289000
   0.0000789900   -0.0013058200    0.0002664300
  -0.0000788300   -0.0002150100    0.0000718900
  -0.0000446500    0.0003690200   -0.0003191800
  -0.0000624300    0.0000023200   -0.0000133800
   0.0000137700    0.0004179600    0.0006360700
  -0.0000339300    0.0000709200    0.0000568200
  -0.0000489200   -0.0004971900    0.0003890200
  -0.0000145400   -0.0001399500    0.0000686100
   0.0000701900   -0.0005357600   -0.0003014600
  -0.0000310800   -0.0001606200    0.0000128100
  -0.0011979000    0.0044276200   -0.0002912100
  -0.0003678800    0.0011312000   -0.0000045900
  -0.0007577600   -0.0008183000   -0.0000237000
   0.0006586900   -0.0004490000   -0.0000125800
  -0.0000016800   -0.0006178000   -0.0000311100
  -0.0000104000   -0.0004943500   -0.0000085600
   0.0008068600   -0.0006965100   -0.0001133100
  -0.0003856300   -0.0003702700    0.0000587100
   0.0000269300    0.0002245500   -0.0000257500
   0.0000058600    0.0001280100   -0.0000719000
  -0.0000298800   -0.0000301000   -0.0000337500
   0.0000350200   -0.0000509000   -0.0000267200
   0.0000057400   -0.0004051100   -0.0000229900
   0.0000005700   -0.0002098100   -0.0000466300
   0.0000673300   -0.0000119600   -0.0000305400
  -0.0000286900   -0.0001016700   -0.0000574100

1    
  0.0000000000000000  -0.0100000000000000   0.0000000000000000
   0.0119501300    0.0613749300   -0.0015833000
   0.0000385600    0.0000019700   -0.0000371000
   0.0014601900   -0.0109690400   -0.0000244200
   0.0004829400   -0.0001137900   -0.0000398100
   0.0002705400   -0.0013425100   -0.0001055800
   0.0002588600   -0.0004759000   -0.0000724400
  -0.0013384500   -0.0111314600   -0.0002711100
   0.0000938800   -0.0001138300   -0.0000497600
   0.0003653400    0.0006329400    0.0000218200
   0.0002447300   -0.0000296800   -0.0000472100
   0.0005871400   -0.0003272400    0.0000197500
   0.0002811900   -0.0001713200   -0.0000500700
   0.0003195300   -0.0006262300   -0.0001276900
   0.0002854000   -0.0003007700   -0.0000624800
   0.0001454600   -0.0003325900   -0.0000276500
   0.0002373500   -0.0001751200   -0.0000587100
  -0.0000083000    0.0063355500    0.0010987700
   0.0002610300    0.0003852400   -0.0000504000
   0.0016116700   -0.0023220500   -0.0030852800
   0.0002891100    0.0002167100   -0.0001230200
   0.0003011100   -0.0007453100   -0.0000236300
   0.0003006800   -0.0000529200   -0.0000478200
  -0.0007142600   -0.0021594100    0.0020989200
   0.0002041700    0.0001225200    0.0000342500
   0.0006354100    0.0063335200   -0.0006850200
   0.0001096800    0.0003845000   -0.0000521900
   0.0017238700   -0.0023237200    0.0029083300
   0.0003012200    0.0002168200    0.0000231400
   0.0002944800   -0.0007458100    0.0000508600
   0.0002844300   -0.0000530300   -0.0000119400
  -0.0006372100   -0.0021613700   -0.0020947600
   0.0002012900    0.0001271800   -0.0001328200
   0.0000325700    0.0005554000    0.0002901500
  -0.0004724700    0.0003608400    0.0002492600
  -0.0005381500    0.0005982000   -0.0001008600
  -0.0003775200    0.0002884100    0.0000429200
  -0.0004869200   -0.0002405200   -0.0002532700
  -0.0001484600    0.0001085500   -0.0002341500
  -0.0001651200   -0.0002488300    0.0002680500
  -0.0002748500   -0.0001187900    0.0001474400
   0.0028484100    0.0013085000    0.0003034000
  -0.0021723300   -0.0008942900   -0.0011937800