phonopy:
  version: 2.8.1
  frequency_unit_conversion_factor: 15.633302
  symmetry_tolerance: 1.00000e-05
  configuration:
    create_displacements: ".true."
    dim: "2 4 2"

physical_unit:
  atomic_mass: "AMU"
  length: "angstrom"
  force_constants: "eV/angstrom^2"

space_group:
  type: "P2_1/c"
  number: 14
  Hall_symbol: "-P 2ybc"

supercell_matrix:
- [   2,   0,   0 ]
- [   0,   4,   0 ]
- [   0,   0,   2 ]

primitive_cell:
  lattice:
  - [     8.642586016209592,     0.000000000000000,    -0.001709151284227 ] # a
  - [     0.000000000000000,     4.274552523299397,     0.000000000000000 ] # b
  - [    -0.033190096590870,     0.000000000000000,     8.552556201462325 ] # c
  points:
  - symbol: La # 1
    coordinates: [  0.276540304705628,  0.777073548214923,  0.126694125914805 ]
    mass: 138.905470
  - symbol: La # 2
    coordinates: [  0.276540304705628,  0.722926451785077,  0.626694125914805 ]
    mass: 138.905470
  - symbol: La # 3
    coordinates: [  0.723459695294372,  0.222926451785076,  0.873305874085195 ]
    mass: 138.905470
  - symbol: La # 4
    coordinates: [  0.723459695294372,  0.277073548214924,  0.373305874085195 ]
    mass: 138.905470
  - symbol: Se # 5
    coordinates: [  0.002116207635227,  0.320503532080877,  0.117458579066882 ]
    mass: 78.960000
  - symbol: Se # 6
    coordinates: [  0.997883792364773,  0.820503532080877,  0.382541420933118 ]
    mass: 78.960000
  - symbol: Se # 7
    coordinates: [  0.002116207635227,  0.179496467919123,  0.617458579066882 ]
    mass: 78.960000
  - symbol: Se # 8
    coordinates: [  0.365436894036066,  0.242170048684365,  0.874486101249595 ]
    mass: 78.960000
  - symbol: Se # 9
    coordinates: [  0.634563105963934,  0.742170048684364,  0.625513898750405 ]
    mass: 78.960000
  - symbol: Se # 10
    coordinates: [  0.997883792364773,  0.679496467919123,  0.882541420933118 ]
    mass: 78.960000
  - symbol: Se # 11
    coordinates: [  0.365436894036066,  0.257829951315635,  0.374486101249596 ]
    mass: 78.960000
  - symbol: Se # 12
    coordinates: [  0.634563105963934,  0.757829951315636,  0.125513898750405 ]
    mass: 78.960000
  reciprocal_lattice: # without 2pi
  - [     0.115706197840990,     0.000000000000000,     0.000449023635980 ] # a*
  - [     0.000000000000000,     0.233942616109939,     0.000000000000000 ] # b*
  - [     0.000023122840935,     0.000000000000000,     0.116924197151530 ] # c*

unit_cell:
  lattice:
  - [     8.642586016209592,     0.000000000000000,    -0.001709151284227 ] # a
  - [     0.000000000000000,     4.274552523299397,     0.000000000000000 ] # b
  - [    -0.033190096590870,     0.000000000000000,     8.552556201462325 ] # c
  points:
  - symbol: La # 1
    coordinates: [  0.276540304705628,  0.777073548214923,  0.126694125914805 ]
    mass: 138.905470
    reduced_to: 1
  - symbol: La # 2
    coordinates: [  0.276540304705628,  0.722926451785077,  0.626694125914805 ]
    mass: 138.905470
    reduced_to: 2
  - symbol: La # 3
    coordinates: [  0.723459695294372,  0.222926451785076,  0.873305874085195 ]
    mass: 138.905470
    reduced_to: 3
  - symbol: La # 4
    coordinates: [  0.723459695294372,  0.277073548214924,  0.373305874085195 ]
    mass: 138.905470
    reduced_to: 4
  - symbol: Se # 5
    coordinates: [  0.002116207635227,  0.320503532080877,  0.117458579066882 ]
    mass: 78.960000
    reduced_to: 5
  - symbol: Se # 6
    coordinates: [  0.997883792364773,  0.820503532080877,  0.382541420933118 ]
    mass: 78.960000
    reduced_to: 6
  - symbol: Se # 7
    coordinates: [  0.002116207635227,  0.179496467919123,  0.617458579066882 ]
    mass: 78.960000
    reduced_to: 7
  - symbol: Se # 8
    coordinates: [  0.365436894036066,  0.242170048684365,  0.874486101249595 ]
    mass: 78.960000
    reduced_to: 8
  - symbol: Se # 9
    coordinates: [  0.634563105963934,  0.742170048684364,  0.625513898750405 ]
    mass: 78.960000
    reduced_to: 9
  - symbol: Se # 10
    coordinates: [  0.997883792364773,  0.679496467919123,  0.882541420933118 ]
    mass: 78.960000
    reduced_to: 10
  - symbol: Se # 11
    coordinates: [  0.365436894036066,  0.257829951315635,  0.374486101249596 ]
    mass: 78.960000
    reduced_to: 11
  - symbol: Se # 12
    coordinates: [  0.634563105963934,  0.757829951315636,  0.125513898750405 ]
    mass: 78.960000
    reduced_to: 12

supercell:
  lattice:
  - [    17.285172032419183,     0.000000000000000,    -0.003418302568454 ] # a
  - [     0.000000000000000,    17.098210093197590,     0.000000000000000 ] # b
  - [    -0.066380193181740,     0.000000000000000,    17.105112402924650 ] # c
  points:
  - symbol: La # 1
    coordinates: [  0.138270152352814,  0.194268387053731,  0.063347062957402 ]
    mass: 138.905470
    reduced_to: 1
  - symbol: La # 2
    coordinates: [  0.638270152352814,  0.194268387053731,  0.063347062957402 ]
    mass: 138.905470
    reduced_to: 1
  - symbol: La # 3
    coordinates: [  0.138270152352814,  0.444268387053731,  0.063347062957402 ]
    mass: 138.905470
    reduced_to: 1
  - symbol: La # 4
    coordinates: [  0.638270152352814,  0.444268387053731,  0.063347062957402 ]
    mass: 138.905470
    reduced_to: 1
  - symbol: La # 5
    coordinates: [  0.138270152352814,  0.694268387053731,  0.063347062957402 ]
    mass: 138.905470
    reduced_to: 1
  - symbol: La # 6
    coordinates: [  0.638270152352814,  0.694268387053731,  0.063347062957402 ]
    mass: 138.905470
    reduced_to: 1
  - symbol: La # 7
    coordinates: [  0.138270152352814,  0.944268387053731,  0.063347062957402 ]
    mass: 138.905470
    reduced_to: 1
  - symbol: La # 8
    coordinates: [  0.638270152352814,  0.944268387053731,  0.063347062957402 ]
    mass: 138.905470
    reduced_to: 1
  - symbol: La # 9
    coordinates: [  0.138270152352814,  0.194268387053731,  0.563347062957402 ]
    mass: 138.905470
    reduced_to: 1
  - symbol: La # 10
    coordinates: [  0.638270152352814,  0.194268387053731,  0.563347062957402 ]
    mass: 138.905470
    reduced_to: 1
  - symbol: La # 11
    coordinates: [  0.138270152352814,  0.444268387053731,  0.563347062957402 ]
    mass: 138.905470
    reduced_to: 1
  - symbol: La # 12
    coordinates: [  0.638270152352814,  0.444268387053731,  0.563347062957402 ]
    mass: 138.905470
    reduced_to: 1
  - symbol: La # 13
    coordinates: [  0.138270152352814,  0.694268387053731,  0.563347062957402 ]
    mass: 138.905470
    reduced_to: 1
  - symbol: La # 14
    coordinates: [  0.638270152352814,  0.694268387053731,  0.563347062957402 ]
    mass: 138.905470
    reduced_to: 1
  - symbol: La # 15
    coordinates: [  0.138270152352814,  0.944268387053731,  0.563347062957402 ]
    mass: 138.905470
    reduced_to: 1
  - symbol: La # 16
    coordinates: [  0.638270152352814,  0.944268387053731,  0.563347062957402 ]
    mass: 138.905470
    reduced_to: 1
  - symbol: La # 17
    coordinates: [  0.138270152352814,  0.180731612946269,  0.313347062957402 ]
    mass: 138.905470
    reduced_to: 17
  - symbol: La # 18
    coordinates: [  0.638270152352814,  0.180731612946269,  0.313347062957402 ]
    mass: 138.905470
    reduced_to: 17
  - symbol: La # 19
    coordinates: [  0.138270152352814,  0.430731612946269,  0.313347062957402 ]
    mass: 138.905470
    reduced_to: 17
  - symbol: La # 20
    coordinates: [  0.638270152352814,  0.430731612946269,  0.313347062957402 ]
    mass: 138.905470
    reduced_to: 17
  - symbol: La # 21
    coordinates: [  0.138270152352814,  0.680731612946269,  0.313347062957402 ]
    mass: 138.905470
    reduced_to: 17
  - symbol: La # 22
    coordinates: [  0.638270152352814,  0.680731612946269,  0.313347062957402 ]
    mass: 138.905470
    reduced_to: 17
  - symbol: La # 23
    coordinates: [  0.138270152352814,  0.930731612946269,  0.313347062957402 ]
    mass: 138.905470
    reduced_to: 17
  - symbol: La # 24
    coordinates: [  0.638270152352814,  0.930731612946269,  0.313347062957402 ]
    mass: 138.905470
    reduced_to: 17
  - symbol: La # 25
    coordinates: [  0.138270152352814,  0.180731612946269,  0.813347062957402 ]
    mass: 138.905470
    reduced_to: 17
  - symbol: La # 26
    coordinates: [  0.638270152352814,  0.180731612946269,  0.813347062957402 ]
    mass: 138.905470
    reduced_to: 17
  - symbol: La # 27
    coordinates: [  0.138270152352814,  0.430731612946269,  0.813347062957402 ]
    mass: 138.905470
    reduced_to: 17
  - symbol: La # 28
    coordinates: [  0.638270152352814,  0.430731612946269,  0.813347062957402 ]
    mass: 138.905470
    reduced_to: 17
  - symbol: La # 29
    coordinates: [  0.138270152352814,  0.680731612946269,  0.813347062957402 ]
    mass: 138.905470
    reduced_to: 17
  - symbol: La # 30
    coordinates: [  0.638270152352814,  0.680731612946269,  0.813347062957402 ]
    mass: 138.905470
    reduced_to: 17
  - symbol: La # 31
    coordinates: [  0.138270152352814,  0.930731612946269,  0.813347062957402 ]
    mass: 138.905470
    reduced_to: 17
  - symbol: La # 32
    coordinates: [  0.638270152352814,  0.930731612946269,  0.813347062957402 ]
    mass: 138.905470
    reduced_to: 17
  - symbol: La # 33
    coordinates: [  0.361729847647186,  0.055731612946269,  0.436652937042598 ]
    mass: 138.905470
    reduced_to: 33
  - symbol: La # 34
    coordinates: [  0.861729847647186,  0.055731612946269,  0.436652937042598 ]
    mass: 138.905470
    reduced_to: 33
  - symbol: La # 35
    coordinates: [  0.361729847647186,  0.305731612946269,  0.436652937042598 ]
    mass: 138.905470
    reduced_to: 33
  - symbol: La # 36
    coordinates: [  0.861729847647186,  0.305731612946269,  0.436652937042598 ]
    mass: 138.905470
    reduced_to: 33
  - symbol: La # 37
    coordinates: [  0.361729847647186,  0.555731612946269,  0.436652937042598 ]
    mass: 138.905470
    reduced_to: 33
  - symbol: La # 38
    coordinates: [  0.861729847647186,  0.555731612946269,  0.436652937042598 ]
    mass: 138.905470
    reduced_to: 33
  - symbol: La # 39
    coordinates: [  0.361729847647186,  0.805731612946269,  0.436652937042598 ]
    mass: 138.905470
    reduced_to: 33
  - symbol: La # 40
    coordinates: [  0.861729847647186,  0.805731612946269,  0.436652937042598 ]
    mass: 138.905470
    reduced_to: 33
  - symbol: La # 41
    coordinates: [  0.361729847647186,  0.055731612946269,  0.936652937042598 ]
    mass: 138.905470
    reduced_to: 33
  - symbol: La # 42
    coordinates: [  0.861729847647186,  0.055731612946269,  0.936652937042598 ]
    mass: 138.905470
    reduced_to: 33
  - symbol: La # 43
    coordinates: [  0.361729847647186,  0.305731612946269,  0.936652937042598 ]
    mass: 138.905470
    reduced_to: 33
  - symbol: La # 44
    coordinates: [  0.861729847647186,  0.305731612946269,  0.936652937042598 ]
    mass: 138.905470
    reduced_to: 33
  - symbol: La # 45
    coordinates: [  0.361729847647186,  0.555731612946269,  0.936652937042598 ]
    mass: 138.905470
    reduced_to: 33
  - symbol: La # 46
    coordinates: [  0.861729847647186,  0.555731612946269,  0.936652937042598 ]
    mass: 138.905470
    reduced_to: 33
  - symbol: La # 47
    coordinates: [  0.361729847647186,  0.805731612946269,  0.936652937042598 ]
    mass: 138.905470
    reduced_to: 33
  - symbol: La # 48
    coordinates: [  0.861729847647186,  0.805731612946269,  0.936652937042598 ]
    mass: 138.905470
    reduced_to: 33
  - symbol: La # 49
    coordinates: [  0.361729847647186,  0.069268387053731,  0.186652937042598 ]
    mass: 138.905470
    reduced_to: 49
  - symbol: La # 50
    coordinates: [  0.861729847647186,  0.069268387053731,  0.186652937042598 ]
    mass: 138.905470
    reduced_to: 49
  - symbol: La # 51
    coordinates: [  0.361729847647186,  0.319268387053731,  0.186652937042598 ]
    mass: 138.905470
    reduced_to: 49
  - symbol: La # 52
    coordinates: [  0.861729847647186,  0.319268387053731,  0.186652937042598 ]
    mass: 138.905470
    reduced_to: 49
  - symbol: La # 53
    coordinates: [  0.361729847647186,  0.569268387053731,  0.186652937042598 ]
    mass: 138.905470
    reduced_to: 49
  - symbol: La # 54
    coordinates: [  0.861729847647186,  0.569268387053731,  0.186652937042598 ]
    mass: 138.905470
    reduced_to: 49
  - symbol: La # 55
    coordinates: [  0.361729847647186,  0.819268387053731,  0.186652937042598 ]
    mass: 138.905470
    reduced_to: 49
  - symbol: La # 56
    coordinates: [  0.861729847647186,  0.819268387053731,  0.186652937042598 ]
    mass: 138.905470
    reduced_to: 49
  - symbol: La # 57
    coordinates: [  0.361729847647186,  0.069268387053731,  0.686652937042598 ]
    mass: 138.905470
    reduced_to: 49
  - symbol: La # 58
    coordinates: [  0.861729847647186,  0.069268387053731,  0.686652937042598 ]
    mass: 138.905470
    reduced_to: 49
  - symbol: La # 59
    coordinates: [  0.361729847647186,  0.319268387053731,  0.686652937042598 ]
    mass: 138.905470
    reduced_to: 49
  - symbol: La # 60
    coordinates: [  0.861729847647186,  0.319268387053731,  0.686652937042598 ]
    mass: 138.905470
    reduced_to: 49
  - symbol: La # 61
    coordinates: [  0.361729847647186,  0.569268387053731,  0.686652937042598 ]
    mass: 138.905470
    reduced_to: 49
  - symbol: La # 62
    coordinates: [  0.861729847647186,  0.569268387053731,  0.686652937042598 ]
    mass: 138.905470
    reduced_to: 49
  - symbol: La # 63
    coordinates: [  0.361729847647186,  0.819268387053731,  0.686652937042598 ]
    mass: 138.905470
    reduced_to: 49
  - symbol: La # 64
    coordinates: [  0.861729847647186,  0.819268387053731,  0.686652937042598 ]
    mass: 138.905470
    reduced_to: 49
  - symbol: Se # 65
    coordinates: [  0.001058103817613,  0.080125883020219,  0.058729289533441 ]
    mass: 78.960000
    reduced_to: 65
  - symbol: Se # 66
    coordinates: [  0.501058103817613,  0.080125883020219,  0.058729289533441 ]
    mass: 78.960000
    reduced_to: 65
  - symbol: Se # 67
    coordinates: [  0.001058103817613,  0.330125883020219,  0.058729289533441 ]
    mass: 78.960000
    reduced_to: 65
  - symbol: Se # 68
    coordinates: [  0.501058103817613,  0.330125883020219,  0.058729289533441 ]
    mass: 78.960000
    reduced_to: 65
  - symbol: Se # 69
    coordinates: [  0.001058103817613,  0.580125883020219,  0.058729289533441 ]
    mass: 78.960000
    reduced_to: 65
  - symbol: Se # 70
    coordinates: [  0.501058103817613,  0.580125883020219,  0.058729289533441 ]
    mass: 78.960000
    reduced_to: 65
  - symbol: Se # 71
    coordinates: [  0.001058103817613,  0.830125883020219,  0.058729289533441 ]
    mass: 78.960000
    reduced_to: 65
  - symbol: Se # 72
    coordinates: [  0.501058103817613,  0.830125883020219,  0.058729289533441 ]
    mass: 78.960000
    reduced_to: 65
  - symbol: Se # 73
    coordinates: [  0.001058103817613,  0.080125883020219,  0.558729289533441 ]
    mass: 78.960000
    reduced_to: 65
  - symbol: Se # 74
    coordinates: [  0.501058103817613,  0.080125883020219,  0.558729289533441 ]
    mass: 78.960000
    reduced_to: 65
  - symbol: Se # 75
    coordinates: [  0.001058103817613,  0.330125883020219,  0.558729289533441 ]
    mass: 78.960000
    reduced_to: 65
  - symbol: Se # 76
    coordinates: [  0.501058103817613,  0.330125883020219,  0.558729289533441 ]
    mass: 78.960000
    reduced_to: 65
  - symbol: Se # 77
    coordinates: [  0.001058103817613,  0.580125883020219,  0.558729289533441 ]
    mass: 78.960000
    reduced_to: 65
  - symbol: Se # 78
    coordinates: [  0.501058103817613,  0.580125883020219,  0.558729289533441 ]
    mass: 78.960000
    reduced_to: 65
  - symbol: Se # 79
    coordinates: [  0.001058103817613,  0.830125883020219,  0.558729289533441 ]
    mass: 78.960000
    reduced_to: 65
  - symbol: Se # 80
    coordinates: [  0.501058103817613,  0.830125883020219,  0.558729289533441 ]
    mass: 78.960000
    reduced_to: 65
  - symbol: Se # 81
    coordinates: [  0.498941896182387,  0.205125883020219,  0.191270710466559 ]
    mass: 78.960000
    reduced_to: 81
  - symbol: Se # 82
    coordinates: [  0.998941896182387,  0.205125883020219,  0.191270710466559 ]
    mass: 78.960000
    reduced_to: 81
  - symbol: Se # 83
    coordinates: [  0.498941896182387,  0.455125883020219,  0.191270710466559 ]
    mass: 78.960000
    reduced_to: 81
  - symbol: Se # 84
    coordinates: [  0.998941896182387,  0.455125883020219,  0.191270710466559 ]
    mass: 78.960000
    reduced_to: 81
  - symbol: Se # 85
    coordinates: [  0.498941896182387,  0.705125883020219,  0.191270710466559 ]
    mass: 78.960000
    reduced_to: 81
  - symbol: Se # 86
    coordinates: [  0.998941896182387,  0.705125883020219,  0.191270710466559 ]
    mass: 78.960000
    reduced_to: 81
  - symbol: Se # 87
    coordinates: [  0.498941896182387,  0.955125883020219,  0.191270710466559 ]
    mass: 78.960000
    reduced_to: 81
  - symbol: Se # 88
    coordinates: [  0.998941896182387,  0.955125883020219,  0.191270710466559 ]
    mass: 78.960000
    reduced_to: 81
  - symbol: Se # 89
    coordinates: [  0.498941896182387,  0.205125883020219,  0.691270710466559 ]
    mass: 78.960000
    reduced_to: 81
  - symbol: Se # 90
    coordinates: [  0.998941896182387,  0.205125883020219,  0.691270710466559 ]
    mass: 78.960000
    reduced_to: 81
  - symbol: Se # 91
    coordinates: [  0.498941896182387,  0.455125883020219,  0.691270710466559 ]
    mass: 78.960000
    reduced_to: 81
  - symbol: Se # 92
    coordinates: [  0.998941896182387,  0.455125883020219,  0.691270710466559 ]
    mass: 78.960000
    reduced_to: 81
  - symbol: Se # 93
    coordinates: [  0.498941896182387,  0.705125883020219,  0.691270710466559 ]
    mass: 78.960000
    reduced_to: 81
  - symbol: Se # 94
    coordinates: [  0.998941896182387,  0.705125883020219,  0.691270710466559 ]
    mass: 78.960000
    reduced_to: 81
  - symbol: Se # 95
    coordinates: [  0.498941896182387,  0.955125883020219,  0.691270710466559 ]
    mass: 78.960000
    reduced_to: 81
  - symbol: Se # 96
    coordinates: [  0.998941896182387,  0.955125883020219,  0.691270710466559 ]
    mass: 78.960000
    reduced_to: 81
  - symbol: Se # 97
    coordinates: [  0.001058103817613,  0.044874116979781,  0.308729289533441 ]
    mass: 78.960000
    reduced_to: 97
  - symbol: Se # 98
    coordinates: [  0.501058103817613,  0.044874116979781,  0.308729289533441 ]
    mass: 78.960000
    reduced_to: 97
  - symbol: Se # 99
    coordinates: [  0.001058103817613,  0.294874116979781,  0.308729289533441 ]
    mass: 78.960000
    reduced_to: 97
  - symbol: Se # 100
    coordinates: [  0.501058103817613,  0.294874116979781,  0.308729289533441 ]
    mass: 78.960000
    reduced_to: 97
  - symbol: Se # 101
    coordinates: [  0.001058103817613,  0.544874116979781,  0.308729289533441 ]
    mass: 78.960000
    reduced_to: 97
  - symbol: Se # 102
    coordinates: [  0.501058103817613,  0.544874116979781,  0.308729289533441 ]
    mass: 78.960000
    reduced_to: 97
  - symbol: Se # 103
    coordinates: [  0.001058103817613,  0.794874116979781,  0.308729289533441 ]
    mass: 78.960000
    reduced_to: 97
  - symbol: Se # 104
    coordinates: [  0.501058103817613,  0.794874116979781,  0.308729289533441 ]
    mass: 78.960000
    reduced_to: 97
  - symbol: Se # 105
    coordinates: [  0.001058103817613,  0.044874116979781,  0.808729289533441 ]
    mass: 78.960000
    reduced_to: 97
  - symbol: Se # 106
    coordinates: [  0.501058103817613,  0.044874116979781,  0.808729289533441 ]
    mass: 78.960000
    reduced_to: 97
  - symbol: Se # 107
    coordinates: [  0.001058103817613,  0.294874116979781,  0.808729289533441 ]
    mass: 78.960000
    reduced_to: 97
  - symbol: Se # 108
    coordinates: [  0.501058103817613,  0.294874116979781,  0.808729289533441 ]
    mass: 78.960000
    reduced_to: 97
  - symbol: Se # 109
    coordinates: [  0.001058103817613,  0.544874116979781,  0.808729289533441 ]
    mass: 78.960000
    reduced_to: 97
  - symbol: Se # 110
    coordinates: [  0.501058103817613,  0.544874116979781,  0.808729289533441 ]
    mass: 78.960000
    reduced_to: 97
  - symbol: Se # 111
    coordinates: [  0.001058103817613,  0.794874116979781,  0.808729289533441 ]
    mass: 78.960000
    reduced_to: 97
  - symbol: Se # 112
    coordinates: [  0.501058103817613,  0.794874116979781,  0.808729289533441 ]
    mass: 78.960000
    reduced_to: 97
  - symbol: Se # 113
    coordinates: [  0.182718447018033,  0.060542512171091,  0.437243050624798 ]
    mass: 78.960000
    reduced_to: 113
  - symbol: Se # 114
    coordinates: [  0.682718447018033,  0.060542512171091,  0.437243050624798 ]
    mass: 78.960000
    reduced_to: 113
  - symbol: Se # 115
    coordinates: [  0.182718447018033,  0.310542512171091,  0.437243050624798 ]
    mass: 78.960000
    reduced_to: 113
  - symbol: Se # 116
    coordinates: [  0.682718447018033,  0.310542512171091,  0.437243050624798 ]
    mass: 78.960000
    reduced_to: 113
  - symbol: Se # 117
    coordinates: [  0.182718447018033,  0.560542512171091,  0.437243050624798 ]
    mass: 78.960000
    reduced_to: 113
  - symbol: Se # 118
    coordinates: [  0.682718447018033,  0.560542512171091,  0.437243050624798 ]
    mass: 78.960000
    reduced_to: 113
  - symbol: Se # 119
    coordinates: [  0.182718447018033,  0.810542512171091,  0.437243050624798 ]
    mass: 78.960000
    reduced_to: 113
  - symbol: Se # 120
    coordinates: [  0.682718447018033,  0.810542512171091,  0.437243050624798 ]
    mass: 78.960000
    reduced_to: 113
  - symbol: Se # 121
    coordinates: [  0.182718447018033,  0.060542512171091,  0.937243050624798 ]
    mass: 78.960000
    reduced_to: 113
  - symbol: Se # 122
    coordinates: [  0.682718447018033,  0.060542512171091,  0.937243050624798 ]
    mass: 78.960000
    reduced_to: 113
  - symbol: Se # 123
    coordinates: [  0.182718447018033,  0.310542512171091,  0.937243050624798 ]
    mass: 78.960000
    reduced_to: 113
  - symbol: Se # 124
    coordinates: [  0.682718447018033,  0.310542512171091,  0.937243050624798 ]
    mass: 78.960000
    reduced_to: 113
  - symbol: Se # 125
    coordinates: [  0.182718447018033,  0.560542512171091,  0.937243050624798 ]
    mass: 78.960000
    reduced_to: 113
  - symbol: Se # 126
    coordinates: [  0.682718447018033,  0.560542512171091,  0.937243050624798 ]
    mass: 78.960000
    reduced_to: 113
  - symbol: Se # 127
    coordinates: [  0.182718447018033,  0.810542512171091,  0.937243050624798 ]
    mass: 78.960000
    reduced_to: 113
  - symbol: Se # 128
    coordinates: [  0.682718447018033,  0.810542512171091,  0.937243050624798 ]
    mass: 78.960000
    reduced_to: 113
  - symbol: Se # 129
    coordinates: [  0.317281552981967,  0.185542512171091,  0.312756949375202 ]
    mass: 78.960000
    reduced_to: 129
  - symbol: Se # 130
    coordinates: [  0.817281552981967,  0.185542512171091,  0.312756949375202 ]
    mass: 78.960000
    reduced_to: 129
  - symbol: Se # 131
    coordinates: [  0.317281552981967,  0.435542512171091,  0.312756949375202 ]
    mass: 78.960000
    reduced_to: 129
  - symbol: Se # 132
    coordinates: [  0.817281552981967,  0.435542512171091,  0.312756949375202 ]
    mass: 78.960000
    reduced_to: 129
  - symbol: Se # 133
    coordinates: [  0.317281552981967,  0.685542512171091,  0.312756949375202 ]
    mass: 78.960000
    reduced_to: 129
  - symbol: Se # 134
    coordinates: [  0.817281552981967,  0.685542512171091,  0.312756949375202 ]
    mass: 78.960000
    reduced_to: 129
  - symbol: Se # 135
    coordinates: [  0.317281552981967,  0.935542512171091,  0.312756949375202 ]
    mass: 78.960000
    reduced_to: 129
  - symbol: Se # 136
    coordinates: [  0.817281552981967,  0.935542512171091,  0.312756949375202 ]
    mass: 78.960000
    reduced_to: 129
  - symbol: Se # 137
    coordinates: [  0.317281552981967,  0.185542512171091,  0.812756949375202 ]
    mass: 78.960000
    reduced_to: 129
  - symbol: Se # 138
    coordinates: [  0.817281552981967,  0.185542512171091,  0.812756949375202 ]
    mass: 78.960000
    reduced_to: 129
  - symbol: Se # 139
    coordinates: [  0.317281552981967,  0.435542512171091,  0.812756949375202 ]
    mass: 78.960000
    reduced_to: 129
  - symbol: Se # 140
    coordinates: [  0.817281552981967,  0.435542512171091,  0.812756949375202 ]
    mass: 78.960000
    reduced_to: 129
  - symbol: Se # 141
    coordinates: [  0.317281552981967,  0.685542512171091,  0.812756949375202 ]
    mass: 78.960000
    reduced_to: 129
  - symbol: Se # 142
    coordinates: [  0.817281552981967,  0.685542512171091,  0.812756949375202 ]
    mass: 78.960000
    reduced_to: 129
  - symbol: Se # 143
    coordinates: [  0.317281552981967,  0.935542512171091,  0.812756949375202 ]
    mass: 78.960000
    reduced_to: 129
  - symbol: Se # 144
    coordinates: [  0.817281552981967,  0.935542512171091,  0.812756949375202 ]
    mass: 78.960000
    reduced_to: 129
  - symbol: Se # 145
    coordinates: [  0.498941896182387,  0.169874116979781,  0.441270710466559 ]
    mass: 78.960000
    reduced_to: 145
  - symbol: Se # 146
    coordinates: [  0.998941896182387,  0.169874116979781,  0.441270710466559 ]
    mass: 78.960000
    reduced_to: 145
  - symbol: Se # 147
    coordinates: [  0.498941896182387,  0.419874116979781,  0.441270710466559 ]
    mass: 78.960000
    reduced_to: 145
  - symbol: Se # 148
    coordinates: [  0.998941896182387,  0.419874116979781,  0.441270710466559 ]
    mass: 78.960000
    reduced_to: 145
  - symbol: Se # 149
    coordinates: [  0.498941896182387,  0.669874116979781,  0.441270710466559 ]
    mass: 78.960000
    reduced_to: 145
  - symbol: Se # 150
    coordinates: [  0.998941896182387,  0.669874116979781,  0.441270710466559 ]
    mass: 78.960000
    reduced_to: 145
  - symbol: Se # 151
    coordinates: [  0.498941896182387,  0.919874116979781,  0.441270710466559 ]
    mass: 78.960000
    reduced_to: 145
  - symbol: Se # 152
    coordinates: [  0.998941896182387,  0.919874116979781,  0.441270710466559 ]
    mass: 78.960000
    reduced_to: 145
  - symbol: Se # 153
    coordinates: [  0.498941896182387,  0.169874116979781,  0.941270710466559 ]
    mass: 78.960000
    reduced_to: 145
  - symbol: Se # 154
    coordinates: [  0.998941896182387,  0.169874116979781,  0.941270710466559 ]
    mass: 78.960000
    reduced_to: 145
  - symbol: Se # 155
    coordinates: [  0.498941896182387,  0.419874116979781,  0.941270710466559 ]
    mass: 78.960000
    reduced_to: 145
  - symbol: Se # 156
    coordinates: [  0.998941896182387,  0.419874116979781,  0.941270710466559 ]
    mass: 78.960000
    reduced_to: 145
  - symbol: Se # 157
    coordinates: [  0.498941896182387,  0.669874116979781,  0.941270710466559 ]
    mass: 78.960000
    reduced_to: 145
  - symbol: Se # 158
    coordinates: [  0.998941896182387,  0.669874116979781,  0.941270710466559 ]
    mass: 78.960000
    reduced_to: 145
  - symbol: Se # 159
    coordinates: [  0.498941896182387,  0.919874116979781,  0.941270710466559 ]
    mass: 78.960000
    reduced_to: 145
  - symbol: Se # 160
    coordinates: [  0.998941896182387,  0.919874116979781,  0.941270710466559 ]
    mass: 78.960000
    reduced_to: 145
  - symbol: Se # 161
    coordinates: [  0.182718447018033,  0.064457487828909,  0.187243050624798 ]
    mass: 78.960000
    reduced_to: 161
  - symbol: Se # 162
    coordinates: [  0.682718447018033,  0.064457487828909,  0.187243050624798 ]
    mass: 78.960000
    reduced_to: 161
  - symbol: Se # 163
    coordinates: [  0.182718447018033,  0.314457487828909,  0.187243050624798 ]
    mass: 78.960000
    reduced_to: 161
  - symbol: Se # 164
    coordinates: [  0.682718447018033,  0.314457487828909,  0.187243050624798 ]
    mass: 78.960000
    reduced_to: 161
  - symbol: Se # 165
    coordinates: [  0.182718447018033,  0.564457487828909,  0.187243050624798 ]
    mass: 78.960000
    reduced_to: 161
  - symbol: Se # 166
    coordinates: [  0.682718447018033,  0.564457487828909,  0.187243050624798 ]
    mass: 78.960000
    reduced_to: 161
  - symbol: Se # 167
    coordinates: [  0.182718447018033,  0.814457487828909,  0.187243050624798 ]
    mass: 78.960000
    reduced_to: 161
  - symbol: Se # 168
    coordinates: [  0.682718447018033,  0.814457487828909,  0.187243050624798 ]
    mass: 78.960000
    reduced_to: 161
  - symbol: Se # 169
    coordinates: [  0.182718447018033,  0.064457487828909,  0.687243050624798 ]
    mass: 78.960000
    reduced_to: 161
  - symbol: Se # 170
    coordinates: [  0.682718447018033,  0.064457487828909,  0.687243050624798 ]
    mass: 78.960000
    reduced_to: 161
  - symbol: Se # 171
    coordinates: [  0.182718447018033,  0.314457487828909,  0.687243050624798 ]
    mass: 78.960000
    reduced_to: 161
  - symbol: Se # 172
    coordinates: [  0.682718447018033,  0.314457487828909,  0.687243050624798 ]
    mass: 78.960000
    reduced_to: 161
  - symbol: Se # 173
    coordinates: [  0.182718447018033,  0.564457487828909,  0.687243050624798 ]
    mass: 78.960000
    reduced_to: 161
  - symbol: Se # 174
    coordinates: [  0.682718447018033,  0.564457487828909,  0.687243050624798 ]
    mass: 78.960000
    reduced_to: 161
  - symbol: Se # 175
    coordinates: [  0.182718447018033,  0.814457487828909,  0.687243050624798 ]
    mass: 78.960000
    reduced_to: 161
  - symbol: Se # 176
    coordinates: [  0.682718447018033,  0.814457487828909,  0.687243050624798 ]
    mass: 78.960000
    reduced_to: 161
  - symbol: Se # 177
    coordinates: [  0.317281552981967,  0.189457487828909,  0.062756949375202 ]
    mass: 78.960000
    reduced_to: 177
  - symbol: Se # 178
    coordinates: [  0.817281552981967,  0.189457487828909,  0.062756949375202 ]
    mass: 78.960000
    reduced_to: 177
  - symbol: Se # 179
    coordinates: [  0.317281552981967,  0.439457487828909,  0.062756949375202 ]
    mass: 78.960000
    reduced_to: 177
  - symbol: Se # 180
    coordinates: [  0.817281552981967,  0.439457487828909,  0.062756949375202 ]
    mass: 78.960000
    reduced_to: 177
  - symbol: Se # 181
    coordinates: [  0.317281552981967,  0.689457487828909,  0.062756949375202 ]
    mass: 78.960000
    reduced_to: 177
  - symbol: Se # 182